 Entering Gaussian System, Link 0=g09
 Input=CO2_freq_B3LYP_ccpVDZ.com
 Output=CO2_freq_B3LYP_ccpVDZ.log
 Initial command:
 /cluster/apps/gaussian/g09/l1.exe "/cluster/home/opauline/Gaussian_jobs/Freq/Gau-28155.inp" -scrdir="/cluster/home/opauline/Gaussian_jobs/Freq/"
 Entering Link 1 = /cluster/apps/gaussian/g09/l1.exe PID=     28161.
  
 Copyright (c) 1988,1990,1992,1993,1995,1998,2003,2009,2013,
            Gaussian, Inc.  All Rights Reserved.
  
 This is part of the Gaussian(R) 09 program.  It is based on
 the Gaussian(R) 03 system (copyright 2003, Gaussian, Inc.),
 the Gaussian(R) 98 system (copyright 1998, Gaussian, Inc.),
 the Gaussian(R) 94 system (copyright 1995, Gaussian, Inc.),
 the Gaussian 92(TM) system (copyright 1992, Gaussian, Inc.),
 the Gaussian 90(TM) system (copyright 1990, Gaussian, Inc.),
 the Gaussian 88(TM) system (copyright 1988, Gaussian, Inc.),
 the Gaussian 86(TM) system (copyright 1986, Carnegie Mellon
 University), and the Gaussian 82(TM) system (copyright 1983,
 Carnegie Mellon University). Gaussian is a federally registered
 trademark of Gaussian, Inc.
  
 This software contains proprietary and confidential information,
 including trade secrets, belonging to Gaussian, Inc.
  
 This software is provided under written license and may be
 used, copied, transmitted, or stored only in accord with that
 written license.
  
 The following legend is applicable only to US Government
 contracts under FAR:
  
                    RESTRICTED RIGHTS LEGEND
  
 Use, reproduction and disclosure by the US Government is
 subject to restrictions as set forth in subparagraphs (a)
 and (c) of the Commercial Computer Software - Restricted
 Rights clause in FAR 52.227-19.
  
 Gaussian, Inc.
 340 Quinnipiac St., Bldg. 40, Wallingford CT 06492
  
  
 ---------------------------------------------------------------
 Warning -- This program may not be used in any manner that
 competes with the business of Gaussian, Inc. or will provide
 assistance to any competitor of Gaussian, Inc.  The licensee
 of this program is prohibited from giving any competitor of
 Gaussian, Inc. access to this program.  By using this program,
 the user acknowledges that Gaussian, Inc. is engaged in the
 business of creating and licensing software in the field of
 computational chemistry and represents and warrants to the
 licensee that it is not a competitor of Gaussian, Inc. and that
 it will not use this program in any manner prohibited above.
 ---------------------------------------------------------------
  

 Cite this work as:
 Gaussian 09, Revision D.01,
 M. J. Frisch, G. W. Trucks, H. B. Schlegel, G. E. Scuseria, 
 M. A. Robb, J. R. Cheeseman, G. Scalmani, V. Barone, B. Mennucci, 
 G. A. Petersson, H. Nakatsuji, M. Caricato, X. Li, H. P. Hratchian, 
 A. F. Izmaylov, J. Bloino, G. Zheng, J. L. Sonnenberg, M. Hada, 
 M. Ehara, K. Toyota, R. Fukuda, J. Hasegawa, M. Ishida, T. Nakajima, 
 Y. Honda, O. Kitao, H. Nakai, T. Vreven, J. A. Montgomery, Jr., 
 J. E. Peralta, F. Ogliaro, M. Bearpark, J. J. Heyd, E. Brothers, 
 K. N. Kudin, V. N. Staroverov, T. Keith, R. Kobayashi, J. Normand, 
 K. Raghavachari, A. Rendell, J. C. Burant, S. S. Iyengar, J. Tomasi, 
 M. Cossi, N. Rega, J. M. Millam, M. Klene, J. E. Knox, J. B. Cross, 
 V. Bakken, C. Adamo, J. Jaramillo, R. Gomperts, R. E. Stratmann, 
 O. Yazyev, A. J. Austin, R. Cammi, C. Pomelli, J. W. Ochterski, 
 R. L. Martin, K. Morokuma, V. G. Zakrzewski, G. A. Voth, 
 P. Salvador, J. J. Dannenberg, S. Dapprich, A. D. Daniels, 
 O. Farkas, J. B. Foresman, J. V. Ortiz, J. Cioslowski, 
 and D. J. Fox, Gaussian, Inc., Wallingford CT, 2013.
 
 ******************************************
 Gaussian 09:  ES64L-G09RevD.01 24-Apr-2013
                22-Jun-2020 
 ******************************************
 %Chk=CO2_freq_B3LYP_ccpVDZ.chk
 %NProc=4
 Will use up to    4 processors via shared memory.
 %Mem=1Gb
 ----------------------------------------------------------
 #p B3LYP/cc-pVDZ Freq=(Anharm) Int=Ultrafine SCF=VeryTight
 ----------------------------------------------------------
 1/10=4,30=1,38=21,80=1/1,6,3;
 2/12=2,17=6,18=5,40=1/2;
 3/5=16,11=2,16=1,25=1,30=1,71=2,74=-5,75=-5,140=1/1,2,3;
 4/69=2/1;
 5/5=2,17=3,38=5,96=-2,98=1/2;
 8/6=4,10=90,11=11/1;
 11/6=1,8=1,9=11,15=111,16=1/1,2,10;
 10/6=1,60=-2/2;
 6/7=2,8=2,9=2,10=2,28=1/1;
 7/10=1,25=1,71=2/1,2,3,16;
 1/38=20,80=1/6(3);
 7/8=1,25=2,44=-1,71=2/16,17;
 1/10=4,30=1,38=20,80=1/3;
 99/8=1000/99;
 3/5=16,11=2,16=1,25=1,30=1,71=2,74=-5,75=-5,140=1/1,2,3;
 4/5=5,16=3,69=2/1;
 5/5=2,17=3,38=5,96=-2,98=1/2;
 8/6=4,10=90,11=11/1;
 11/6=1,8=1,9=11,15=111,16=1/1,2,10;
 10/6=1,60=-2/2;
 6/7=2,8=2,9=2,10=2,28=1/1;
 7/7=1,10=1,25=1,71=1/1,2,3,16;
 1/38=20,80=1/6(-8);
 7/8=1,25=2,44=-1,71=1/16,17;
 1/10=4,30=1,38=20,80=1/3;
 99/8=1000/99;
 Leave Link    1 at Mon Jun 22 15:41:48 2020, MaxMem=   134217728 cpu:         0.4
 (Enter /cluster/apps/gaussian/g09/l101.exe)
 ---------------------------------------
 CO2 geometry optimization B3LYP/cc-pVDZ
 ---------------------------------------
 Symbolic Z-matrix:
 Charge =  0 Multiplicity = 1
 C                    -0.84863   2.06762   0.16099 
 O                     0.10455   2.65936  -0.16168 
 O                    -1.80181   1.47589   0.48366 
 
 NAtoms=      3 NQM=        3 NQMF=       0 NMMI=      0 NMMIF=      0
                NMic=       0 NMicF=      0.
                    Isotopes and Nuclear Properties:
 (Nuclear quadrupole moments (NQMom) in fm**2, nuclear magnetic moments (NMagM)
  in nuclear magnetons)

  Atom         1           2           3
 IAtWgt=          12          16          16
 AtmWgt=  12.0000000  15.9949146  15.9949146
 NucSpn=           0           0           0
 AtZEff=   0.0000000   0.0000000   0.0000000
 NQMom=    0.0000000   0.0000000   0.0000000
 NMagM=    0.0000000   0.0000000   0.0000000
 AtZNuc=   6.0000000   8.0000000   8.0000000
 Leave Link  101 at Mon Jun 22 15:41:48 2020, MaxMem=   134217728 cpu:         0.3
 (Enter /cluster/apps/gaussian/g09/l106.exe)
 Numerical evaluation of third derivatives.
 Nuclear step= 0.010000 Angstroms, electric field step= 0.000333 atomic units, NStep=1.
 Leave Link  106 at Mon Jun 22 15:41:48 2020, MaxMem=   134217728 cpu:         0.0
 (Enter /cluster/apps/gaussian/g09/l103.exe)

 GradGradGradGradGradGradGradGradGradGradGradGradGradGradGradGradGradGrad
 Berny optimization.
 Initialization pass.
 Trust Radius=3.00D-01 FncErr=1.00D-07 GrdErr=1.00D-07
 Number of steps in this run=      2 maximum allowed number of steps=      2.
 GradGradGradGradGradGradGradGradGradGradGradGradGradGradGradGradGradGrad

 Leave Link  103 at Mon Jun 22 15:41:48 2020, MaxMem=   134217728 cpu:         0.1
 (Enter /cluster/apps/gaussian/g09/l202.exe)
                          Input orientation:                          
 ---------------------------------------------------------------------
 Center     Atomic      Atomic             Coordinates (Angstroms)
 Number     Number       Type             X           Y           Z
 ---------------------------------------------------------------------
      1          6           0       -0.848629    2.067624    0.160992
      2          8           0        0.104548    2.659360   -0.161678
      3          8           0       -1.801806    1.475887    0.483662
 ---------------------------------------------------------------------
                    Distance matrix (angstroms):
                    1          2          3
     1  C    0.000000
     2  O    1.167396   0.000000
     3  O    1.167397   2.334793   0.000000
 Stoichiometry    CO2
 Framework group  D*H[O(C),C*(O.O)]
 Deg. of freedom     1
 Full point group                 D*H     NOp   8
 Largest Abelian subgroup         D2H     NOp   8
 Largest concise Abelian subgroup C2      NOp   2
                         Standard orientation:                         
 ---------------------------------------------------------------------
 Center     Atomic      Atomic             Coordinates (Angstroms)
 Number     Number       Type             X           Y           Z
 ---------------------------------------------------------------------
      1          6           0        0.000000    0.000000    0.000000
      2          8           0        0.000000    0.000000   -1.167396
      3          8           0        0.000000    0.000000    1.167396
 ---------------------------------------------------------------------
 Rotational constants (GHZ):      0.0000000     11.5922732     11.5922732
 Leave Link  202 at Mon Jun 22 15:41:49 2020, MaxMem=   134217728 cpu:         0.2
 (Enter /cluster/apps/gaussian/g09/l301.exe)
 Standard basis: CC-pVDZ (5D, 7F)
 Ernie: Thresh=  0.10000D-02 Tol=  0.10000D-05 Strict=F.
 Ernie:  6 primitive shells out of 66 were deleted.
 There are    14 symmetry adapted cartesian basis functions of AG  symmetry.
 There are     2 symmetry adapted cartesian basis functions of B1G symmetry.
 There are     4 symmetry adapted cartesian basis functions of B2G symmetry.
 There are     4 symmetry adapted cartesian basis functions of B3G symmetry.
 There are     1 symmetry adapted cartesian basis functions of AU  symmetry.
 There are    10 symmetry adapted cartesian basis functions of B1U symmetry.
 There are     5 symmetry adapted cartesian basis functions of B2U symmetry.
 There are     5 symmetry adapted cartesian basis functions of B3U symmetry.
 There are    12 symmetry adapted basis functions of AG  symmetry.
 There are     2 symmetry adapted basis functions of B1G symmetry.
 There are     4 symmetry adapted basis functions of B2G symmetry.
 There are     4 symmetry adapted basis functions of B3G symmetry.
 There are     1 symmetry adapted basis functions of AU  symmetry.
 There are     9 symmetry adapted basis functions of B1U symmetry.
 There are     5 symmetry adapted basis functions of B2U symmetry.
 There are     5 symmetry adapted basis functions of B3U symmetry.
    42 basis functions,    99 primitive gaussians,    45 cartesian basis functions
    11 alpha electrons       11 beta electrons
       nuclear repulsion energy        58.0220098286 Hartrees.
 IExCor=  402 DFT=T Ex+Corr=B3LYP ExCW=0 ScaHFX=  0.200000
 ScaDFX=  0.800000  0.720000  1.000000  0.810000 ScalE2=  1.000000  1.000000
 IRadAn=      5 IRanWt=     -1 IRanGd=            0 ICorTp=0 IEmpDi=  4
 NAtoms=    3 NActive=    3 NUniq=    2 SFac= 2.25D+00 NAtFMM=   60 NAOKFM=F Big=F
 Integral buffers will be    131072 words long.
 Raffenetti 2 integral format.
 Two-electron integral symmetry is turned on.
 Leave Link  301 at Mon Jun 22 15:41:49 2020, MaxMem=   134217728 cpu:         0.2
 (Enter /cluster/apps/gaussian/g09/l302.exe)
 NPDir=0 NMtPBC=     1 NCelOv=     1 NCel=       1 NClECP=     1 NCelD=      1
         NCelK=      1 NCelE2=     1 NClLst=     1 CellRange=     0.0.
 One-electron integrals computed using PRISM.
 One-electron integral symmetry used in STVInt
 NBasis=    42 RedAO= T EigKep=  2.93D-02  NBF=    12     2     4     4     1     9     5     5
 NBsUse=    42 1.00D-06 EigRej= -1.00D+00 NBFU=    12     2     4     4     1     9     5     5
 Precomputing XC quadrature grid using
 IXCGrd= 4 IRadAn=           5 IRanWt=          -1 IRanGd=           0 AccXCQ= 0.00D+00.
 Generated NRdTot=       0 NPtTot=           0 NUsed=           0 NTot=          32
 NSgBfM=    45    45    45    45    45 MxSgAt=     3 MxSgA2=     3.
 Leave Link  302 at Mon Jun 22 15:41:50 2020, MaxMem=   134217728 cpu:         2.8
 (Enter /cluster/apps/gaussian/g09/l303.exe)
 DipDrv:  MaxL=1.
 Leave Link  303 at Mon Jun 22 15:41:50 2020, MaxMem=   134217728 cpu:         0.6
 (Enter /cluster/apps/gaussian/g09/l401.exe)
 ExpMin= 1.52D-01 ExpMax= 1.17D+04 ExpMxC= 4.01D+02 IAcc=3 IRadAn=         5 AccDes= 0.00D+00
 Harris functional with IExCor=  402 and IRadAn=       5 diagonalized for initial guess.
 HarFok:  IExCor=  402 AccDes= 0.00D+00 IRadAn=         5 IDoV= 1 UseB2=F ITyADJ=14
 ICtDFT=  3500011 ScaDFX=  1.000000  1.000000  1.000000  1.000000
 FoFCou: FMM=F IPFlag=           0 FMFlag=      100000 FMFlg1=           0
         NFxFlg=           0 DoJE=T BraDBF=F KetDBF=T FulRan=T
         wScrn=  0.000000 ICntrl=     500 IOpCl=  0 I1Cent=   200000004 NGrid=           0
         NMat0=    1 NMatS0=      1 NMatT0=    0 NMatD0=    1 NMtDS0=    0 NMtDT0=    0
 Petite list used in FoFCou.
 Harris En= -188.605136473759    
 JPrj=0 DoOrth=F DoCkMO=F.
 Initial guess orbital symmetries:
       Occupied  (SGU) (SGG) (SGG) (SGG) (SGU) (SGG) (SGU) (PIU)
                 (PIU) (PIG) (PIG)
       Virtual   (PIU) (PIU) (SGG) (SGU) (PIU) (PIU) (SGG) (SGU)
                 (SGG) (PIG) (PIG) (SGU) (PIU) (PIU) (DLTG) (DLTG)
                 (PIG) (PIG) (SGG) (SGU) (DLTU) (DLTU) (DLTG) (DLTG)
                 (SGG) (PIU) (PIU) (SGG) (PIG) (PIG) (SGU)
 The electronic state of the initial guess is 1-SGG.
 Leave Link  401 at Mon Jun 22 15:41:51 2020, MaxMem=   134217728 cpu:         2.4
 (Enter /cluster/apps/gaussian/g09/l502.exe)
 Closed shell SCF:
 Using DIIS extrapolation, IDIIS=  1040.
 Integral symmetry usage will be decided dynamically.
 Keep R1 ints in memory in symmetry-blocked form, NReq=1305609.
 IVT=       25427 IEndB=       25427 NGot=   134217728 MDV=   134131624
 LenX=   134131624 LenY=   134129158
 Requested convergence on RMS density matrix=1.00D-08 within 128 cycles.
 Requested convergence on MAX density matrix=1.00D-06.
 Requested convergence on             energy=1.00D-06.
 No special actions if energy rises.
 FoFCou: FMM=F IPFlag=           0 FMFlag=           0 FMFlg1=           0
         NFxFlg=           0 DoJE=F BraDBF=F KetDBF=F FulRan=T
         wScrn=  0.000000 ICntrl=     600 IOpCl=  0 I1Cent=           0 NGrid=           0
         NMat0=    1 NMatS0=    903 NMatT0=    0 NMatD0=    1 NMtDS0=    0 NMtDT0=    0
 Petite list used in FoFCou.
 Integral accuracy reduced to 1.0D-05 until final iterations.

 Cycle   1  Pass 0  IDiag  1:
 E= -188.521725607666    
 DIIS: error= 4.58D-02 at cycle   1 NSaved=   1.
 NSaved= 1 IEnMin= 1 EnMin= -188.521725607666     IErMin= 1 ErrMin= 4.58D-02
 ErrMax= 4.58D-02  0.00D+00 EMaxC= 1.00D-01 BMatC= 1.10D-01 BMatP= 1.10D-01
 IDIUse=3 WtCom= 5.42D-01 WtEn= 4.58D-01
 Coeff-Com:  0.100D+01
 Coeff-En:   0.100D+01
 Coeff:      0.100D+01
 Gap=     0.314 Goal=   None    Shift=    0.000
 GapD=    0.314 DampG=1.000 DampE=0.500 DampFc=0.5000 IDamp=-1.
 Damping current iteration by 5.00D-01
 RMSDP=1.06D-02 MaxDP=1.21D-01              OVMax= 2.09D-01

 Cycle   2  Pass 0  IDiag  1:
 E= -188.535407550812     Delta-E=       -0.013681943146 Rises=F Damp=T
 DIIS: error= 2.16D-02 at cycle   2 NSaved=   2.
 NSaved= 2 IEnMin= 2 EnMin= -188.535407550812     IErMin= 2 ErrMin= 2.16D-02
 ErrMax= 2.16D-02  0.00D+00 EMaxC= 1.00D-01 BMatC= 1.65D-02 BMatP= 1.10D-01
 IDIUse=3 WtCom= 7.84D-01 WtEn= 2.16D-01
 Coeff-Com:  0.266D+00 0.734D+00
 Coeff-En:   0.424D+00 0.576D+00
 Coeff:      0.300D+00 0.700D+00
 Gap=     0.391 Goal=   None    Shift=    0.000
 RMSDP=1.79D-03 MaxDP=3.19D-02 DE=-1.37D-02 OVMax= 1.37D-01

 Cycle   3  Pass 0  IDiag  1:
 E= -188.597816127669     Delta-E=       -0.062408576857 Rises=F Damp=F
 DIIS: error= 4.06D-03 at cycle   3 NSaved=   3.
 NSaved= 3 IEnMin= 3 EnMin= -188.597816127669     IErMin= 3 ErrMin= 4.06D-03
 ErrMax= 4.06D-03  0.00D+00 EMaxC= 1.00D-01 BMatC= 8.20D-04 BMatP= 1.65D-02
 IDIUse=3 WtCom= 9.59D-01 WtEn= 4.06D-02
 Coeff-Com:  0.101D+00 0.175D+00 0.723D+00
 Coeff-En:   0.000D+00 0.000D+00 0.100D+01
 Coeff:      0.971D-01 0.168D+00 0.735D+00
 Gap=     0.400 Goal=   None    Shift=    0.000
 RMSDP=5.95D-04 MaxDP=4.74D-03 DE=-6.24D-02 OVMax= 5.97D-03

 Cycle   4  Pass 0  IDiag  1:
 E= -188.598431693109     Delta-E=       -0.000615565441 Rises=F Damp=F
 DIIS: error= 8.58D-04 at cycle   4 NSaved=   4.
 NSaved= 4 IEnMin= 4 EnMin= -188.598431693109     IErMin= 4 ErrMin= 8.58D-04
 ErrMax= 8.58D-04  0.00D+00 EMaxC= 1.00D-01 BMatC= 2.78D-05 BMatP= 8.20D-04
 IDIUse=3 WtCom= 9.91D-01 WtEn= 8.58D-03
 Coeff-Com:  0.592D-02-0.128D-01 0.178D+00 0.829D+00
 Coeff-En:   0.000D+00 0.000D+00 0.000D+00 0.100D+01
 Coeff:      0.587D-02-0.127D-01 0.177D+00 0.830D+00
 Gap=     0.401 Goal=   None    Shift=    0.000
 RMSDP=9.68D-05 MaxDP=1.12D-03 DE=-6.16D-04 OVMax= 1.35D-03

 Cycle   5  Pass 0  IDiag  1:
 E= -188.598457118009     Delta-E=       -0.000025424899 Rises=F Damp=F
 DIIS: error= 5.11D-05 at cycle   5 NSaved=   5.
 NSaved= 5 IEnMin= 5 EnMin= -188.598457118009     IErMin= 5 ErrMin= 5.11D-05
 ErrMax= 5.11D-05  0.00D+00 EMaxC= 1.00D-01 BMatC= 7.19D-08 BMatP= 2.78D-05
 IDIUse=1 WtCom= 1.00D+00 WtEn= 0.00D+00
 Coeff-Com:  0.515D-03-0.261D-02 0.281D-01 0.147D+00 0.827D+00
 Coeff:      0.515D-03-0.261D-02 0.281D-01 0.147D+00 0.827D+00
 Gap=     0.401 Goal=   None    Shift=    0.000
 RMSDP=2.88D-06 MaxDP=1.99D-05 DE=-2.54D-05 OVMax= 3.87D-05

 Initial convergence to 1.0D-05 achieved.  Increase integral accuracy.
 Cycle   6  Pass 1  IDiag  1:
 E= -188.598467109635     Delta-E=       -0.000009991627 Rises=F Damp=F
 DIIS: error= 2.85D-05 at cycle   1 NSaved=   1.
 NSaved= 1 IEnMin= 1 EnMin= -188.598467109635     IErMin= 1 ErrMin= 2.85D-05
 ErrMax= 2.85D-05  0.00D+00 EMaxC= 1.00D-01 BMatC= 2.36D-08 BMatP= 2.36D-08
 IDIUse=1 WtCom= 1.00D+00 WtEn= 0.00D+00
 Coeff-Com:  0.100D+01
 Coeff:      0.100D+01
 Gap=     0.401 Goal=   None    Shift=    0.000
 RMSDP=2.88D-06 MaxDP=1.99D-05 DE=-9.99D-06 OVMax= 5.30D-05

 Cycle   7  Pass 1  IDiag  1:
 E= -188.598467132019     Delta-E=       -0.000000022383 Rises=F Damp=F
 DIIS: error= 1.13D-05 at cycle   2 NSaved=   2.
 NSaved= 2 IEnMin= 2 EnMin= -188.598467132019     IErMin= 2 ErrMin= 1.13D-05
 ErrMax= 1.13D-05  0.00D+00 EMaxC= 1.00D-01 BMatC= 5.10D-09 BMatP= 2.36D-08
 IDIUse=1 WtCom= 1.00D+00 WtEn= 0.00D+00
 Coeff-Com:  0.231D+00 0.769D+00
 Coeff:      0.231D+00 0.769D+00
 Gap=     0.401 Goal=   None    Shift=    0.000
 RMSDP=1.83D-06 MaxDP=2.44D-05 DE=-2.24D-08 OVMax= 4.11D-05

 Cycle   8  Pass 1  IDiag  1:
 E= -188.598467131117     Delta-E=        0.000000000901 Rises=F Damp=F
 DIIS: error= 1.24D-05 at cycle   3 NSaved=   3.
 NSaved= 3 IEnMin= 2 EnMin= -188.598467132019     IErMin= 2 ErrMin= 1.13D-05
 ErrMax= 1.24D-05  0.00D+00 EMaxC= 1.00D-01 BMatC= 7.04D-09 BMatP= 5.10D-09
 IDIUse=1 WtCom= 1.00D+00 WtEn= 0.00D+00
 Coeff-Com: -0.519D-01 0.550D+00 0.502D+00
 Coeff:     -0.519D-01 0.550D+00 0.502D+00
 Gap=     0.401 Goal=   None    Shift=    0.000
 RMSDP=1.01D-06 MaxDP=1.17D-05 DE= 9.01D-10 OVMax= 1.95D-05

 Cycle   9  Pass 1  IDiag  1:
 E= -188.598467135994     Delta-E=       -0.000000004877 Rises=F Damp=F
 DIIS: error= 3.91D-07 at cycle   4 NSaved=   4.
 NSaved= 4 IEnMin= 4 EnMin= -188.598467135994     IErMin= 4 ErrMin= 3.91D-07
 ErrMax= 3.91D-07  0.00D+00 EMaxC= 1.00D-01 BMatC= 1.03D-11 BMatP= 5.10D-09
 IDIUse=1 WtCom= 1.00D+00 WtEn= 0.00D+00
 Coeff-Com: -0.149D-01 0.153D+00 0.133D+00 0.729D+00
 Coeff:     -0.149D-01 0.153D+00 0.133D+00 0.729D+00
 Gap=     0.401 Goal=   None    Shift=    0.000
 RMSDP=7.67D-08 MaxDP=9.13D-07 DE=-4.88D-09 OVMax= 1.07D-06

 Cycle  10  Pass 1  IDiag  1:
 E= -188.598467136003     Delta-E=       -0.000000000009 Rises=F Damp=F
 DIIS: error= 2.11D-07 at cycle   5 NSaved=   5.
 NSaved= 5 IEnMin= 5 EnMin= -188.598467136003     IErMin= 5 ErrMin= 2.11D-07
 ErrMax= 2.11D-07  0.00D+00 EMaxC= 1.00D-01 BMatC= 1.31D-12 BMatP= 1.03D-11
 IDIUse=1 WtCom= 1.00D+00 WtEn= 0.00D+00
 Coeff-Com:  0.203D-03-0.651D-02-0.156D-01 0.173D+00 0.849D+00
 Coeff:      0.203D-03-0.651D-02-0.156D-01 0.173D+00 0.849D+00
 Gap=     0.401 Goal=   None    Shift=    0.000
 RMSDP=1.84D-08 MaxDP=2.44D-07 DE=-8.73D-12 OVMax= 2.60D-07

 Cycle  11  Pass 1  IDiag  1:
 E= -188.598467136004     Delta-E=       -0.000000000001 Rises=F Damp=F
 DIIS: error= 6.16D-09 at cycle   6 NSaved=   6.
 NSaved= 6 IEnMin= 6 EnMin= -188.598467136004     IErMin= 6 ErrMin= 6.16D-09
 ErrMax= 6.16D-09  0.00D+00 EMaxC= 1.00D-01 BMatC= 2.15D-15 BMatP= 1.31D-12
 IDIUse=1 WtCom= 1.00D+00 WtEn= 0.00D+00
 Coeff-Com:  0.147D-03-0.249D-02-0.378D-02 0.199D-01 0.112D+00 0.874D+00
 Coeff:      0.147D-03-0.249D-02-0.378D-02 0.199D-01 0.112D+00 0.874D+00
 Gap=     0.401 Goal=   None    Shift=    0.000
 RMSDP=9.09D-10 MaxDP=1.27D-08 DE=-6.54D-13 OVMax= 1.14D-08

 SCF Done:  E(RB3LYP) =  -188.598467136     A.U. after   11 cycles
            NFock= 11  Conv=0.91D-09     -V/T= 2.0058
 KE= 1.875138137784D+02 PE=-5.597590617417D+02 EE= 1.256247709987D+02
 Leave Link  502 at Mon Jun 22 15:42:00 2020, MaxMem=   134217728 cpu:        27.7
 (Enter /cluster/apps/gaussian/g09/l801.exe)
 DoSCS=F DFT=T ScalE2(SS,OS)=  1.000000  1.000000
 Range of M.O.s used for correlation:     1    42
 NBasis=    42 NAE=    11 NBE=    11 NFC=     0 NFV=     0
 NROrb=     42 NOA=    11 NOB=    11 NVA=    31 NVB=    31
 Leave Link  801 at Mon Jun 22 15:42:00 2020, MaxMem=   134217728 cpu:         0.1
 (Enter /cluster/apps/gaussian/g09/l1101.exe)
 Using compressed storage, NAtomX=     3.
 Will process      4 centers per pass.
 Leave Link 1101 at Mon Jun 22 15:42:01 2020, MaxMem=   134217728 cpu:         1.7
 (Enter /cluster/apps/gaussian/g09/l1102.exe)
 Symmetrizing basis deriv contribution to polar:
 IMax=3 JMax=2 DiffMx= 0.00D+00
 Leave Link 1102 at Mon Jun 22 15:42:01 2020, MaxMem=   134217728 cpu:         0.3
 (Enter /cluster/apps/gaussian/g09/l1110.exe)
 Forming Gx(P) for the SCF density, NAtomX=     3.
 Integral derivatives from FoFJK, PRISM(SPDF).
 Do as many integral derivatives as possible in FoFJK.
 G2DrvN: MDV=     134217600.
 G2DrvN: will do     4 centers at a time, making    1 passes.
 Calling FoFCou, ICntrl=  3107 FMM=F I1Cent=   0 AccDes= 0.00D+00.
 FoFJK:  IHMeth= 1 ICntrl=    3107 DoSepK=F KAlg= 0 I1Cent=   0 FoldK=F
 IRaf=         0 NMat=   1 IRICut=       1 DoRegI=T DoRafI=F ISym2E= 1.
 FoFCou: FMM=F IPFlag=           0 FMFlag=      100000 FMFlg1=           0
         NFxFlg=           0 DoJE=F BraDBF=F KetDBF=F FulRan=T
         wScrn=  0.000000 ICntrl=    3107 IOpCl=  0 I1Cent=           0 NGrid=           0
         NMat0=    1 NMatS0=      1 NMatT0=    0 NMatD0=    1 NMtDS0=    0 NMtDT0=    0
 Petite list used in FoFCou.
 End of G2Drv F.D. properties file   721 does not exist.
 End of G2Drv F.D. properties file   722 does not exist.
 End of G2Drv F.D. properties file   788 does not exist.
 Leave Link 1110 at Mon Jun 22 15:42:02 2020, MaxMem=   134217728 cpu:         2.8
 (Enter /cluster/apps/gaussian/g09/l1002.exe)
 Minotr:  Closed shell wavefunction.
          IDoAtm=111
          Direct CPHF calculation.
          Differentiating once with respect to electric field.
                with respect to dipole field.
          Differentiating once with respect to nuclear coordinates.
          Using symmetry in CPHF.
          Requested convergence is 1.0D-08 RMS, and 1.0D-07 maximum.
          Secondary convergence is 1.0D-12 RMS, and 1.0D-12 maximum.
          NewPWx=T KeepS1=F KeepF1=F KeepIn=T MapXYZ=F SortEE=F KeepMc=T.
          MDV=     134217652 using IRadAn=       4.
 Generate precomputed XC quadrature information.
 Keep R1 ints in memory in symmetry-blocked form, NReq=1280153.
 FoFCou: FMM=F IPFlag=           0 FMFlag=           0 FMFlg1=           0
         NFxFlg=           0 DoJE=F BraDBF=F KetDBF=F FulRan=T
         wScrn=  0.000000 ICntrl=     600 IOpCl=  0 I1Cent=           0 NGrid=           0
         NMat0=    1 NMatS0=    903 NMatT0=    0 NMatD0=    1 NMtDS0=    0 NMtDT0=    0
 Petite list used in FoFCou.
          Solving linear equations simultaneously, MaxMat=       0.
          There are     9 degrees of freedom in the 1st order CPHF.  IDoFFX=4 NUNeed=     9.
      9 vectors produced by pass  0 Test12= 3.79D-15 1.11D-08 XBig12= 2.58D+01 3.40D+00.
 AX will form     9 AO Fock derivatives at one time.
      9 vectors produced by pass  1 Test12= 3.79D-15 1.11D-08 XBig12= 9.36D+00 1.43D+00.
      9 vectors produced by pass  2 Test12= 3.79D-15 1.11D-08 XBig12= 3.66D-02 7.18D-02.
      9 vectors produced by pass  3 Test12= 3.79D-15 1.11D-08 XBig12= 1.30D-04 5.52D-03.
      9 vectors produced by pass  4 Test12= 3.79D-15 1.11D-08 XBig12= 2.26D-07 1.47D-04.
      7 vectors produced by pass  5 Test12= 3.79D-15 1.11D-08 XBig12= 5.21D-10 9.13D-06.
      2 vectors produced by pass  6 Test12= 3.79D-15 1.11D-08 XBig12= 8.91D-12 1.54D-06.
      1 vectors produced by pass  7 Test12= 3.79D-15 1.11D-08 XBig12= 1.06D-14 4.58D-08.
 InvSVY:  IOpt=1 It=  1 EMax= 8.88D-16
 Solved reduced A of dimension    55 with     9 vectors.
 FullF1:  Do perturbations    1 to     9.
 Isotropic polarizability for W=    0.000000       12.22 Bohr**3.
 End of Minotr F.D. properties file   721 does not exist.
 End of Minotr F.D. properties file   722 does not exist.
 End of Minotr F.D. properties file   788 does not exist.
 Leave Link 1002 at Mon Jun 22 15:42:11 2020, MaxMem=   134217728 cpu:        25.8
 (Enter /cluster/apps/gaussian/g09/l601.exe)
 Copying SCF densities to generalized density rwf, IOpCl= 0 IROHF=0.

 **********************************************************************

            Population analysis using the SCF density.

 **********************************************************************

 Orbital symmetries:
       Occupied  (SGU) (SGG) (SGG) (SGG) (SGU) (SGG) (SGU) (PIU)
                 (PIU) (PIG) (PIG)
       Virtual   (PIU) (PIU) (SGG) (SGU) (PIU) (PIU) (SGG) (SGU)
                 (SGG) (PIG) (PIG) (DLTG) (DLTG) (SGU) (PIU) (PIU)
                 (PIG) (PIG) (SGG) (SGU) (DLTU) (DLTU) (DLTG) (DLTG)
                 (SGG) (PIU) (PIU) (SGG) (PIG) (PIG) (SGU)
 The electronic state is 1-SGG.
 Alpha  occ. eigenvalues --  -19.22372 -19.22371 -10.38050  -1.15981  -1.11924
 Alpha  occ. eigenvalues --   -0.56131  -0.51663  -0.51209  -0.51209  -0.36756
 Alpha  occ. eigenvalues --   -0.36756
 Alpha virt. eigenvalues --    0.03304   0.03304   0.08151   0.34268   0.41443
 Alpha virt. eigenvalues --    0.41443   0.54031   0.74394   0.83045   0.86775
 Alpha virt. eigenvalues --    0.86775   1.03934   1.03934   1.07648   1.08728
 Alpha virt. eigenvalues --    1.08728   1.29444   1.29444   1.58887   2.03184
 Alpha virt. eigenvalues --    2.52071   2.52071   2.64771   2.64771   2.70281
 Alpha virt. eigenvalues --    2.73643   2.73643   3.36661   3.47061   3.47061
 Alpha virt. eigenvalues --    3.50037
          Condensed to atoms (all electrons):
               1          2          3
     1  C    4.203595   0.753930   0.753930
     2  O    0.753930   7.417149  -0.026806
     3  O    0.753930  -0.026806   7.417149
 Mulliken charges:
               1
     1  C    0.288545
     2  O   -0.144273
     3  O   -0.144273
 Sum of Mulliken charges =   0.00000
 Mulliken charges with hydrogens summed into heavy atoms:
               1
     1  C    0.288545
     2  O   -0.144273
     3  O   -0.144273
 APT charges:
               1
     1  C    1.095560
     2  O   -0.547780
     3  O   -0.547780
 Sum of APT charges =   0.00000
 APT charges with hydrogens summed into heavy atoms:
               1
     1  C    1.095560
     2  O   -0.547780
     3  O   -0.547780
 Electronic spatial extent (au):  <R**2>=            113.2407
 Charge=              0.0000 electrons
 Dipole moment (field-independent basis, Debye):
    X=              0.0000    Y=              0.0000    Z=              0.0000  Tot=              0.0000
 Quadrupole moment (field-independent basis, Debye-Ang):
   XX=            -14.4450   YY=            -14.4450   ZZ=            -18.6886
   XY=              0.0000   XZ=              0.0000   YZ=              0.0000
 Traceless Quadrupole moment (field-independent basis, Debye-Ang):
   XX=              1.4145   YY=              1.4145   ZZ=             -2.8290
   XY=              0.0000   XZ=              0.0000   YZ=              0.0000
 Octapole moment (field-independent basis, Debye-Ang**2):
  XXX=              0.0000  YYY=              0.0000  ZZZ=              0.0000  XYY=              0.0000
  XXY=              0.0000  XXZ=              0.0000  XZZ=              0.0000  YZZ=              0.0000
  YYZ=              0.0000  XYZ=              0.0000
 Hexadecapole moment (field-independent basis, Debye-Ang**3):
 XXXX=            -10.4924 YYYY=            -10.4924 ZZZZ=            -99.0411 XXXY=              0.0000
 XXXZ=              0.0000 YYYX=              0.0000 YYYZ=              0.0000 ZZZX=              0.0000
 ZZZY=              0.0000 XXYY=             -3.4975 XXZZ=            -17.7488 YYZZ=            -17.7488
 XXYZ=              0.0000 YYXZ=              0.0000 ZZXY=              0.0000
 N-N= 5.802200982864D+01 E-N=-5.597590617631D+02  KE= 1.875138137784D+02
 Symmetry AG   KE= 1.011942344797D+02
 Symmetry B1G  KE= 5.276536042195D-31
 Symmetry B2G  KE= 4.911740577932D+00
 Symmetry B3G  KE= 4.911740577932D+00
 Symmetry AU   KE= 4.147579464273D-31
 Symmetry B1U  KE= 6.925987506587D+01
 Symmetry B2U  KE= 3.618111538475D+00
 Symmetry B3U  KE= 3.618111538474D+00
  Exact polarizability:   7.607   0.000   7.607   0.000   0.000  21.442
 Approx polarizability:   9.661   0.000   9.661   0.000   0.000  45.792
 No NMR shielding tensors so no spin-rotation constants.
 Leave Link  601 at Mon Jun 22 15:42:12 2020, MaxMem=   134217728 cpu:         3.2
 (Enter /cluster/apps/gaussian/g09/l701.exe)
 Compute integral second derivatives.
 ... and contract with generalized density number  0.
 Leave Link  701 at Mon Jun 22 15:42:12 2020, MaxMem=   134217728 cpu:         1.4
 (Enter /cluster/apps/gaussian/g09/l702.exe)
 L702 exits ... SP integral derivatives will be done elsewhere.
 Leave Link  702 at Mon Jun 22 15:42:13 2020, MaxMem=   134217728 cpu:         0.1
 (Enter /cluster/apps/gaussian/g09/l703.exe)
 Compute integral second derivatives, UseDBF=F ICtDFT=           0.
 Integral derivatives from FoFJK, PRISM(SPDF).
 Calling FoFJK, ICntrl=    100127 FMM=F ISym2X=1 I1Cent= 0 IOpClX= 0 NMat=1 NMatS=1 NMatT=0.
 FoFJK:  IHMeth= 1 ICntrl=  100127 DoSepK=F KAlg= 0 I1Cent=   0 FoldK=F
 IRaf=         0 NMat=   1 IRICut=       1 DoRegI=T DoRafI=F ISym2E= 1.
 FoFCou: FMM=F IPFlag=           0 FMFlag=      100000 FMFlg1=         800
         NFxFlg=           0 DoJE=F BraDBF=F KetDBF=F FulRan=T
         wScrn=  0.000000 ICntrl=  100127 IOpCl=  0 I1Cent=           0 NGrid=           0
         NMat0=    1 NMatS0=      1 NMatT0=    0 NMatD0=    1 NMtDS0=    0 NMtDT0=    0
 Petite list used in FoFCou.
 Leave Link  703 at Mon Jun 22 15:42:13 2020, MaxMem=   134217728 cpu:         1.9
 (Enter /cluster/apps/gaussian/g09/l716.exe)
 Dipole        = 2.15263210D-16-1.16600984D-16 6.66133815D-16
 Polarizability= 7.60662689D+00-2.95573182D-15 7.60662689D+00
                -4.44443731D-15-8.52041124D-15 2.14418365D+01
 Full mass-weighted force constant matrix:
 Low frequencies ---   -2.2429   -2.2429    0.0016    0.0021    0.0021  655.0381
 Low frequencies ---  655.0381 1362.3802 2421.4575
 Diagonal vibrational polarizability:
        1.7972359       1.7972359       2.6508017
 Harmonic frequencies (cm**-1), IR intensities (KM/Mole), Raman scattering
 activities (A**4/AMU), depolarization ratios for plane and unpolarized
 incident light, reduced masses (AMU), force constants (mDyne/A),
 and normal coordinates:
                      1                      2                      3
                     PIU                    PIU                    SGG
 Frequencies --    655.0381               655.0381              1362.3802
 Red. masses --     12.8774                12.8774                15.9949
 Frc consts  --      3.2554                 3.2554                17.4916
 IR Inten    --     28.6553                28.6553                 0.0000
  Atom  AN      X      Y      Z        X      Y      Z        X      Y      Z
     1   6    -0.09   0.88   0.00     0.88   0.09   0.00     0.00   0.00   0.00
     2   8     0.03  -0.33   0.00    -0.33  -0.03   0.00     0.00   0.00   0.71
     3   8     0.03  -0.33   0.00    -0.33  -0.03   0.00     0.00   0.00  -0.71
                      4
                     SGU
 Frequencies --   2421.4575
 Red. masses --     12.8774
 Frc consts  --     44.4868
 IR Inten    --    577.5610
  Atom  AN      X      Y      Z
     1   6     0.00   0.00   0.88
     2   8     0.00   0.00  -0.33
     3   8     0.00   0.00  -0.33

 -------------------
 - Thermochemistry -
 -------------------
 Temperature   298.150 Kelvin.  Pressure   1.00000 Atm.
 Atom     1 has atomic number  6 and mass  12.00000
 Atom     2 has atomic number  8 and mass  15.99491
 Atom     3 has atomic number  8 and mass  15.99491
 Molecular mass:    43.98983 amu.
 Principal axes and moments of inertia in atomic units:
                           1         2         3
     Eigenvalues --     0.00000 155.68484 155.68484
           X            0.00000   0.99817  -0.06050
           Y            0.00000   0.06050   0.99817
           Z            1.00000   0.00000   0.00000
 This molecule is a prolate symmetric top.
 Rotational symmetry number  2.
 Rotational temperature (Kelvin)      0.55634
 Rotational constant (GHZ):          11.592273
 Zero-point vibrational energy      30468.4 (Joules/Mol)
                                    7.28212 (Kcal/Mol)
 Vibrational temperatures:    942.45   942.45  1960.16  3483.93
          (Kelvin)
 
 Zero-point correction=                           0.011605 (Hartree/Particle)
 Thermal correction to Energy=                    0.014238
 Thermal correction to Enthalpy=                  0.015182
 Thermal correction to Gibbs Free Energy=        -0.009105
 Sum of electronic and zero-point Energies=           -188.586862
 Sum of electronic and thermal Energies=              -188.584229
 Sum of electronic and thermal Enthalpies=            -188.583285
 Sum of electronic and thermal Free Energies=         -188.607572
 
                     E (Thermal)             CV                S
                      KCal/Mol        Cal/Mol-Kelvin    Cal/Mol-Kelvin
 Total                    8.935              6.926             51.117
 Electronic               0.000              0.000              0.000
 Translational            0.889              2.981             37.270
 Rotational               0.592              1.987             13.097
 Vibrational              7.453              1.958              0.749
                       Q            Log10(Q)             Ln(Q)
 Total Bot       0.154153D+05          4.187953          9.643118
 Total V=0       0.335563D+10          9.525774         21.933906
 Vib (Bot)       0.501655D-05         -5.299594        -12.202767
 Vib (V=0)       0.109201D+01          0.038227          0.088020
 Electronic      0.100000D+01          0.000000          0.000000
 Translational   0.114679D+08          7.059484         16.255062
 Rotational      0.267956D+03          2.428064          5.590824
 JULIEN                       1                       1
 COS =   0.99444715 SIN =  -0.10523718
 At Ixyz  VOld(i)   VOld(j)   VNew(i)   VNew(j)
   1   1  -0.02591   0.24481   0.00000   0.24617
   1   2   0.24481   0.02591   0.24617   0.00000
   1   3   0.00000   0.00000   0.00000   0.00000
   2   1   0.00972  -0.09183   0.00000  -0.09234
   2   2  -0.09183  -0.00972  -0.09234   0.00000
   2   3   0.00000   0.00000   0.00000   0.00000
   3   1   0.00972  -0.09183   0.00000  -0.09234
   3   2  -0.09183  -0.00972  -0.09234   0.00000
   3   3   0.00000   0.00000   0.00000   0.00000
 
                                               CO2 geometry optimization B3LYP/cc
 -pVDZ
                                                             IR Spectrum
 
     2                                                       1                                                                       
     4                                                       3                                    6                                  
     2                                                       6                                    5                                  
     1                                                       2                                    5                                  
 
     X                                                                                            X                                  
     X                                                                                            X                                  
     X                                                                                                                               
     X                                                                                                                               
     X                                                                                                                               
     X                                                                                                                               
     X                                                                                                                               
     X                                                                                                                               
     X                                                                                                                               
     X                                                                                                                               
     X                                                                                                                               
     X                                                                                                                               
     X                                                                                                                               
     X                                                                                                                               
     X                                                                                                                               
     X                                                                                                                               
     X                                                                                                                               
     X                                                                                                                               
     X                                                                                                                               
     X                                                                                                                               
 
 ***** Axes restored to original set *****
 -------------------------------------------------------------------
 Center     Atomic                   Forces (Hartrees/Bohr)
 Number     Number              X              Y              Z
 -------------------------------------------------------------------
      1        6           0.000000000    0.000000000    0.000000000
      2        8           0.000002920    0.000001813   -0.000000988
      3        8          -0.000002920   -0.000001813    0.000000988
 -------------------------------------------------------------------
 Cartesian Forces:  Max     0.000002920 RMS     0.000001686
 Z-matrix is all fixed cartesians, so copy forces.
 Force constants in Cartesian coordinates: 
                1             2             3             4             5 
      1  0.133814D+01
      2  0.742759D+00  0.602806D+00
      3 -0.405021D+00 -0.251439D+00  0.278807D+00
      4 -0.669072D+00 -0.371379D+00  0.202511D+00  0.709034D+00
      5 -0.371379D+00 -0.301403D+00  0.125720D+00  0.418181D+00  0.295032D+00
      6  0.202511D+00  0.125720D+00 -0.139403D+00 -0.228031D+00 -0.141563D+00
      7 -0.669072D+00 -0.371379D+00  0.202511D+00 -0.399623D-01 -0.468015D-01
      8 -0.371379D+00 -0.301403D+00  0.125720D+00 -0.468015D-01  0.637157D-02
      9  0.202511D+00  0.125720D+00 -0.139403D+00  0.255206D-01  0.158433D-01
                6             7             8             9 
      6  0.112616D+00
      7  0.255206D-01  0.709034D+00
      8  0.158433D-01  0.418181D+00  0.295032D+00
      9  0.267869D-01 -0.228031D+00 -0.141563D+00  0.112616D+00
 Leave Link  716 at Mon Jun 22 15:42:14 2020, MaxMem=   134217728 cpu:         0.8
 (Enter /cluster/apps/gaussian/g09/l106.exe)
 NDeriv=   4 NFrqRd=  0 NDerD0=   0 MskFDP=       0 MskDFD=       0 MskDF0=       0
 At 1st pt F.D. properties file   721 does not exist.
 At 1st pt F.D. properties file   722 does not exist.
 D2Numr ... symmetry will not be used.
 Leave Link  106 at Mon Jun 22 15:42:14 2020, MaxMem=   134217728 cpu:         0.4
 (Enter /cluster/apps/gaussian/g09/l301.exe)
 Standard basis: CC-pVDZ (5D, 7F)
 Ernie: Thresh=  0.10000D-02 Tol=  0.10000D-05 Strict=F.
 Ernie:  6 primitive shells out of 66 were deleted.
    42 basis functions,    99 primitive gaussians,    45 cartesian basis functions
    11 alpha electrons       11 beta electrons
       nuclear repulsion energy        58.0218268739 Hartrees.
 IExCor=  402 DFT=T Ex+Corr=B3LYP ExCW=0 ScaHFX=  0.200000
 ScaDFX=  0.800000  0.720000  1.000000  0.810000 ScalE2=  1.000000  1.000000
 IRadAn=      5 IRanWt=     -1 IRanGd=            0 ICorTp=0 IEmpDi=  4
 NAtoms=    3 NActive=    3 NUniq=    3 SFac= 1.00D+00 NAtFMM=   60 NAOKFM=F Big=F
 Integral buffers will be    131072 words long.
 Raffenetti 2 integral format.
 Two-electron integral symmetry is turned off.
 Leave Link  301 at Mon Jun 22 15:42:14 2020, MaxMem=   134217728 cpu:         0.2
 (Enter /cluster/apps/gaussian/g09/l302.exe)
 NPDir=0 NMtPBC=     1 NCelOv=     1 NCel=       1 NClECP=     1 NCelD=      1
         NCelK=      1 NCelE2=     1 NClLst=     1 CellRange=     0.0.
 One-electron integrals computed using PRISM.
 NBasis=    42 RedAO= T EigKep=  1.80D-02  NBF=    42
 NBsUse=    42 1.00D-06 EigRej= -1.00D+00 NBFU=    42
 Precomputing XC quadrature grid using
 IXCGrd= 4 IRadAn=           5 IRanWt=          -1 IRanGd=           0 AccXCQ= 0.00D+00.
 Generated NRdTot=       0 NPtTot=           0 NUsed=           0 NTot=          32
 NSgBfM=    45    45    45    45    45 MxSgAt=     3 MxSgA2=     3.
 Leave Link  302 at Mon Jun 22 15:42:15 2020, MaxMem=   134217728 cpu:         1.4
 (Enter /cluster/apps/gaussian/g09/l303.exe)
 DipDrv:  MaxL=1.
 Leave Link  303 at Mon Jun 22 15:42:15 2020, MaxMem=   134217728 cpu:         0.4
 (Enter /cluster/apps/gaussian/g09/l401.exe)
 Initial guess from the checkpoint file:  "CO2_freq_B3LYP_ccpVDZ.chk"
 B after Tr=     0.000000    0.000000    0.000000
         Rot=    1.000000    0.000000    0.000000    0.000000 Ang=   0.00 deg.
 Guess basis will be translated and rotated to current coordinates.
 JPrj=2 DoOrth=T DoCkMO=T.
 Leave Link  401 at Mon Jun 22 15:42:15 2020, MaxMem=   134217728 cpu:         2.0
 (Enter /cluster/apps/gaussian/g09/l502.exe)
 Closed shell SCF:
 Using DIIS extrapolation, IDIIS=  1040.
 Two-electron integral symmetry not used.
 Keep R1 ints in memory in canonical form, NReq=1300565.
 IVT=       25171 IEndB=       25171 NGot=   134217728 MDV=   133784402
 LenX=   133784402 LenY=   133781936
 Requested convergence on RMS density matrix=1.00D-08 within 128 cycles.
 Requested convergence on MAX density matrix=1.00D-06.
 Requested convergence on             energy=1.00D-06.
 No special actions if energy rises.
 FoFCou: FMM=F IPFlag=           0 FMFlag=           0 FMFlg1=           0
         NFxFlg=           0 DoJE=F BraDBF=F KetDBF=F FulRan=T
         wScrn=  0.000000 ICntrl=     600 IOpCl=  0 I1Cent=           0 NGrid=           0
         NMat0=    1 NMatS0=    903 NMatT0=    0 NMatD0=    1 NMtDS0=    0 NMtDT0=    0
 Symmetry not used in FoFCou.

 Cycle   1  Pass 1  IDiag  1:
 E= -188.598454344214    
 DIIS: error= 5.55D-04 at cycle   1 NSaved=   1.
 NSaved= 1 IEnMin= 1 EnMin= -188.598454344214     IErMin= 1 ErrMin= 5.55D-04
 ErrMax= 5.55D-04  0.00D+00 EMaxC= 1.00D-01 BMatC= 7.18D-06 BMatP= 7.18D-06
 IDIUse=3 WtCom= 9.94D-01 WtEn= 5.55D-03
 Coeff-Com:  0.100D+01
 Coeff-En:   0.100D+01
 Coeff:      0.100D+01
 Gap=     1.120 Goal=   None    Shift=    0.000
 RMSDP=9.45D-05 MaxDP=8.23D-04              OVMax= 1.30D-03

 Cycle   2  Pass 1  IDiag  1:
 E= -188.598464122080     Delta-E=       -0.000009777866 Rises=F Damp=F
 DIIS: error= 5.54D-05 at cycle   2 NSaved=   2.
 NSaved= 2 IEnMin= 2 EnMin= -188.598464122080     IErMin= 2 ErrMin= 5.54D-05
 ErrMax= 5.54D-05  0.00D+00 EMaxC= 1.00D-01 BMatC= 1.02D-07 BMatP= 7.18D-06
 IDIUse=1 WtCom= 1.00D+00 WtEn= 0.00D+00
 Coeff-Com: -0.562D-01 0.106D+01
 Coeff:     -0.562D-01 0.106D+01
 Gap=     0.401 Goal=   None    Shift=    0.000
 RMSDP=9.12D-06 MaxDP=9.36D-05 DE=-9.78D-06 OVMax= 2.22D-04

 Cycle   3  Pass 1  IDiag  1:
 E= -188.598464224736     Delta-E=       -0.000000102656 Rises=F Damp=F
 DIIS: error= 2.14D-05 at cycle   3 NSaved=   3.
 NSaved= 3 IEnMin= 3 EnMin= -188.598464224736     IErMin= 3 ErrMin= 2.14D-05
 ErrMax= 2.14D-05  0.00D+00 EMaxC= 1.00D-01 BMatC= 1.46D-08 BMatP= 1.02D-07
 IDIUse=1 WtCom= 1.00D+00 WtEn= 0.00D+00
 Coeff-Com: -0.221D-01 0.309D+00 0.713D+00
 Coeff:     -0.221D-01 0.309D+00 0.713D+00
 Gap=     0.401 Goal=   None    Shift=    0.000
 RMSDP=1.90D-06 MaxDP=1.05D-05 DE=-1.03D-07 OVMax= 4.80D-05

 Cycle   4  Pass 1  IDiag  1:
 E= -188.598464236502     Delta-E=       -0.000000011767 Rises=F Damp=F
 DIIS: error= 1.75D-06 at cycle   4 NSaved=   4.
 NSaved= 4 IEnMin= 4 EnMin= -188.598464236502     IErMin= 4 ErrMin= 1.75D-06
 ErrMax= 1.75D-06  0.00D+00 EMaxC= 1.00D-01 BMatC= 2.02D-10 BMatP= 1.46D-08
 IDIUse=1 WtCom= 1.00D+00 WtEn= 0.00D+00
 Coeff-Com: -0.411D-02 0.463D-01 0.149D+00 0.809D+00
 Coeff:     -0.411D-02 0.463D-01 0.149D+00 0.809D+00
 Gap=     0.401 Goal=   None    Shift=    0.000
 RMSDP=3.48D-07 MaxDP=4.27D-06 DE=-1.18D-08 OVMax= 7.18D-06

 Cycle   5  Pass 1  IDiag  1:
 E= -188.598464236478     Delta-E=        0.000000000025 Rises=F Damp=F
 DIIS: error= 2.18D-06 at cycle   5 NSaved=   5.
 NSaved= 5 IEnMin= 4 EnMin= -188.598464236502     IErMin= 4 ErrMin= 1.75D-06
 ErrMax= 2.18D-06  0.00D+00 EMaxC= 1.00D-01 BMatC= 2.36D-10 BMatP= 2.02D-10
 IDIUse=1 WtCom= 1.00D+00 WtEn= 0.00D+00
 Coeff-Com: -0.102D-03-0.663D-02 0.153D-01 0.547D+00 0.444D+00
 Coeff:     -0.102D-03-0.663D-02 0.153D-01 0.547D+00 0.444D+00
 Gap=     0.401 Goal=   None    Shift=    0.000
 RMSDP=1.90D-07 MaxDP=2.45D-06 DE= 2.46D-11 OVMax= 4.03D-06

 Cycle   6  Pass 1  IDiag  1:
 E= -188.598464236648     Delta-E=       -0.000000000170 Rises=F Damp=F
 DIIS: error= 6.88D-08 at cycle   6 NSaved=   6.
 NSaved= 6 IEnMin= 6 EnMin= -188.598464236648     IErMin= 6 ErrMin= 6.88D-08
 ErrMax= 6.88D-08  0.00D+00 EMaxC= 1.00D-01 BMatC= 3.27D-13 BMatP= 2.02D-10
 IDIUse=1 WtCom= 1.00D+00 WtEn= 0.00D+00
 Coeff-Com:  0.113D-03-0.194D-02-0.103D-05 0.604D-01 0.733D-01 0.868D+00
 Coeff:      0.113D-03-0.194D-02-0.103D-05 0.604D-01 0.733D-01 0.868D+00
 Gap=     0.401 Goal=   None    Shift=    0.000
 RMSDP=9.40D-09 MaxDP=9.19D-08 DE=-1.70D-10 OVMax= 2.20D-07

 SCF Done:  E(RB3LYP) =  -188.598464237     A.U. after    6 cycles
            NFock=  6  Conv=0.94D-08     -V/T= 2.0058
 KE= 1.875137787371D+02 PE=-5.597586759596D+02 EE= 1.256246061120D+02
 Leave Link  502 at Mon Jun 22 15:42:18 2020, MaxMem=   134217728 cpu:         5.9
 (Enter /cluster/apps/gaussian/g09/l801.exe)
 DoSCS=F DFT=T ScalE2(SS,OS)=  1.000000  1.000000
 Range of M.O.s used for correlation:     1    42
 NBasis=    42 NAE=    11 NBE=    11 NFC=     0 NFV=     0
 NROrb=     42 NOA=    11 NOB=    11 NVA=    31 NVB=    31
 Leave Link  801 at Mon Jun 22 15:42:18 2020, MaxMem=   134217728 cpu:         0.1
 (Enter /cluster/apps/gaussian/g09/l1101.exe)
 Using compressed storage, NAtomX=     3.
 Will process      4 centers per pass.
 Leave Link 1101 at Mon Jun 22 15:42:18 2020, MaxMem=   134217728 cpu:         1.5
 (Enter /cluster/apps/gaussian/g09/l1102.exe)
 Symmetrizing basis deriv contribution to polar:
 IMax=3 JMax=2 DiffMx= 0.00D+00
 Leave Link 1102 at Mon Jun 22 15:42:18 2020, MaxMem=   134217728 cpu:         0.2
 (Enter /cluster/apps/gaussian/g09/l1110.exe)
 Forming Gx(P) for the SCF density, NAtomX=     3.
 Integral derivatives from FoFJK, PRISM(SPDF).
 Do as many integral derivatives as possible in FoFJK.
 G2DrvN: MDV=     134217600.
 G2DrvN: will do     4 centers at a time, making    1 passes.
 Calling FoFCou, ICntrl=  3107 FMM=F I1Cent=   0 AccDes= 0.00D+00.
 FoFJK:  IHMeth= 1 ICntrl=    3107 DoSepK=F KAlg= 0 I1Cent=   0 FoldK=F
 IRaf=         0 NMat=   1 IRICut=       1 DoRegI=T DoRafI=F ISym2E= 0.
 FoFCou: FMM=F IPFlag=           0 FMFlag=      100000 FMFlg1=           0
         NFxFlg=           0 DoJE=F BraDBF=F KetDBF=F FulRan=T
         wScrn=  0.000000 ICntrl=    3107 IOpCl=  0 I1Cent=           0 NGrid=           0
         NMat0=    1 NMatS0=      1 NMatT0=    0 NMatD0=    1 NMtDS0=    0 NMtDT0=    0
 Symmetry not used in FoFCou.
 End of G2Drv F.D. properties file   721 does not exist.
 End of G2Drv F.D. properties file   722 does not exist.
 End of G2Drv F.D. properties file   788 does not exist.
 Leave Link 1110 at Mon Jun 22 15:42:20 2020, MaxMem=   134217728 cpu:         3.7
 (Enter /cluster/apps/gaussian/g09/l1002.exe)
 Minotr:  Closed shell wavefunction.
          IDoAtm=111
          Direct CPHF calculation.
          Differentiating once with respect to electric field.
                with respect to dipole field.
          Differentiating once with respect to nuclear coordinates.
          Requested convergence is 1.0D-08 RMS, and 1.0D-07 maximum.
          Secondary convergence is 1.0D-12 RMS, and 1.0D-12 maximum.
          NewPWx=T KeepS1=F KeepF1=F KeepIn=T MapXYZ=F SortEE=F KeepMc=T.
          MDV=     134217652 using IRadAn=       4.
 Generate precomputed XC quadrature information.
 Keep R1 ints in memory in canonical form, NReq=1274924.
 FoFCou: FMM=F IPFlag=           0 FMFlag=           0 FMFlg1=           0
         NFxFlg=           0 DoJE=F BraDBF=F KetDBF=F FulRan=T
         wScrn=  0.000000 ICntrl=     600 IOpCl=  0 I1Cent=           0 NGrid=           0
         NMat0=    1 NMatS0=    903 NMatT0=    0 NMatD0=    1 NMtDS0=    0 NMtDT0=    0
 Symmetry not used in FoFCou.
          Solving linear equations simultaneously, MaxMat=       0.
          There are    12 degrees of freedom in the 1st order CPHF.  IDoFFX=6 NUNeed=     3.
      9 vectors produced by pass  0 Test12= 2.84D-15 8.33D-09 XBig12= 2.58D+01 3.40D+00.
 AX will form     9 AO Fock derivatives at one time.
      9 vectors produced by pass  1 Test12= 2.84D-15 8.33D-09 XBig12= 9.36D+00 1.43D+00.
      9 vectors produced by pass  2 Test12= 2.84D-15 8.33D-09 XBig12= 3.66D-02 7.18D-02.
      9 vectors produced by pass  3 Test12= 2.84D-15 8.33D-09 XBig12= 1.05D-04 3.59D-03.
      9 vectors produced by pass  4 Test12= 2.84D-15 8.33D-09 XBig12= 1.20D-07 1.44D-04.
      8 vectors produced by pass  5 Test12= 2.84D-15 8.33D-09 XBig12= 4.53D-11 2.32D-06.
      3 vectors produced by pass  6 Test12= 2.84D-15 8.33D-09 XBig12= 2.19D-14 5.76D-08.
 InvSVY:  IOpt=1 It=  1 EMax= 4.44D-16
 Solved reduced A of dimension    56 with     9 vectors.
 FullF1:  Do perturbations    1 to     3.
 Isotropic polarizability for W=    0.000000       12.22 Bohr**3.
 End of Minotr F.D. properties file   721 does not exist.
 End of Minotr F.D. properties file   722 does not exist.
 End of Minotr F.D. properties file   788 does not exist.
 Leave Link 1002 at Mon Jun 22 15:42:26 2020, MaxMem=   134217728 cpu:        17.5
 (Enter /cluster/apps/gaussian/g09/l601.exe)
 Copying SCF densities to generalized density rwf, IOpCl= 0 IROHF=0.

 **********************************************************************

            Population analysis using the SCF density.

 **********************************************************************

 Alpha  occ. eigenvalues --  -19.22372 -19.22372 -10.38051  -1.15980  -1.11924
 Alpha  occ. eigenvalues --   -0.56132  -0.51663  -0.51209  -0.51209  -0.36755
 Alpha  occ. eigenvalues --   -0.36755
 Alpha virt. eigenvalues --    0.03299   0.03304   0.08155   0.34268   0.41443
 Alpha virt. eigenvalues --    0.41443   0.54031   0.74394   0.83045   0.86775
 Alpha virt. eigenvalues --    0.86776   1.03934   1.03934   1.07642   1.08727
 Alpha virt. eigenvalues --    1.08728   1.29443   1.29450   1.58889   2.03183
 Alpha virt. eigenvalues --    2.52072   2.52072   2.64770   2.64770   2.70177
 Alpha virt. eigenvalues --    2.73644   2.73745   3.36662   3.47058   3.47059
 Alpha virt. eigenvalues --    3.50035
          Condensed to atoms (all electrons):
               1          2          3
     1  C    4.203610   0.753922   0.753922
     2  O    0.753922   7.417159  -0.026808
     3  O    0.753922  -0.026808   7.417159
 Mulliken charges:
               1
     1  C    0.288546
     2  O   -0.144273
     3  O   -0.144273
 Sum of Mulliken charges =   0.00000
 Mulliken charges with hydrogens summed into heavy atoms:
               1
     1  C    0.288546
     2  O   -0.144273
     3  O   -0.144273
 APT charges:
               1
     1  C    1.095543
     2  O   -0.547772
     3  O   -0.547772
 Sum of APT charges =   0.00000
 APT charges with hydrogens summed into heavy atoms:
               1
     1  C    1.095543
     2  O   -0.547772
     3  O   -0.547772
 Electronic spatial extent (au):  <R**2>=            113.2409
 Charge=              0.0000 electrons
 Dipole moment (field-independent basis, Debye):
    X=              0.0000    Y=              0.0082    Z=              0.0000  Tot=              0.0082
 Quadrupole moment (field-independent basis, Debye-Ang):
   XX=            -14.4451   YY=            -14.4450   ZZ=            -18.6886
   XY=              0.0000   XZ=              0.0000   YZ=              0.0000
 Traceless Quadrupole moment (field-independent basis, Debye-Ang):
   XX=              1.4145   YY=              1.4145   ZZ=             -2.8290
   XY=              0.0000   XZ=              0.0000   YZ=              0.0000
 Octapole moment (field-independent basis, Debye-Ang**2):
  XXX=              0.0000  YYY=             -0.0055  ZZZ=              0.0000  XYY=              0.0000
  XXY=             -0.0018  XXZ=              0.0000  XZZ=              0.0000  YZZ=             -0.0073
  YYZ=              0.0000  XYZ=              0.0000
 Hexadecapole moment (field-independent basis, Debye-Ang**3):
 XXXX=            -10.4924 YYYY=            -10.4926 ZZZZ=            -99.0412 XXXY=              0.0000
 XXXZ=              0.0000 YYYX=              0.0000 YYYZ=              0.0000 ZZZX=              0.0000
 ZZZY=              0.0000 XXYY=             -3.4975 XXZZ=            -17.7489 YYZZ=            -17.7489
 XXYZ=              0.0000 YYXZ=              0.0000 ZZXY=              0.0000
 N-N= 5.802182687387D+01 E-N=-5.597586765806D+02  KE= 1.875137787371D+02
  Exact polarizability:   7.607   0.000   7.607   0.000   0.000  21.442
 Approx polarizability:   9.661   0.000   9.661   0.000   0.000  45.793
 No NMR shielding tensors so no spin-rotation constants.
 Leave Link  601 at Mon Jun 22 15:42:26 2020, MaxMem=   134217728 cpu:         1.1
 (Enter /cluster/apps/gaussian/g09/l701.exe)
 Compute integral second derivatives.
 ... and contract with generalized density number  0.
 Leave Link  701 at Mon Jun 22 15:42:26 2020, MaxMem=   134217728 cpu:         0.7
 (Enter /cluster/apps/gaussian/g09/l702.exe)
 L702 exits ... SP integral derivatives will be done elsewhere.
 Leave Link  702 at Mon Jun 22 15:42:26 2020, MaxMem=   134217728 cpu:         0.1
 (Enter /cluster/apps/gaussian/g09/l703.exe)
 Compute integral second derivatives, UseDBF=F ICtDFT=           0.
 Integral derivatives from FoFJK, PRISM(SPDF).
 Calling FoFJK, ICntrl=    100127 FMM=F ISym2X=0 I1Cent= 0 IOpClX= 0 NMat=1 NMatS=1 NMatT=0.
 FoFJK:  IHMeth= 1 ICntrl=  100127 DoSepK=F KAlg= 0 I1Cent=   0 FoldK=F
 IRaf=         0 NMat=   1 IRICut=       1 DoRegI=T DoRafI=F ISym2E= 0.
 FoFCou: FMM=F IPFlag=           0 FMFlag=      100000 FMFlg1=         800
         NFxFlg=           0 DoJE=F BraDBF=F KetDBF=F FulRan=T
         wScrn=  0.000000 ICntrl=  100127 IOpCl=  0 I1Cent=           0 NGrid=           0
         NMat0=    1 NMatS0=      1 NMatT0=    0 NMatD0=    1 NMtDS0=    0 NMtDT0=    0
 Symmetry not used in FoFCou.
 Leave Link  703 at Mon Jun 22 15:42:28 2020, MaxMem=   134217728 cpu:         3.4
 (Enter /cluster/apps/gaussian/g09/l716.exe)
 Dipole        = 2.32969538D-14 3.23982888D-03 7.18761855D-13
 Polarizability= 7.60666452D+00 3.28260343D-13 7.60682104D+00
                 2.75846530D-14-9.18420026D-13 2.14419443D+01
 -------------------------------------------------------------------
 Center     Atomic                   Forces (Hartrees/Bohr)
 Number     Number              X              Y              Z
 -------------------------------------------------------------------
      1        6           0.000000000   -0.000906493    0.000000000
      2        8           0.000000000    0.000453246    0.000003241
      3        8           0.000000000    0.000453246   -0.000003241
 -------------------------------------------------------------------
 Cartesian Forces:  Max     0.000906493 RMS     0.000370077
 Force constants in Cartesian coordinates: 
                1             2             3             4             5 
      1  0.141704D+00
      2  0.000000D+00  0.141715D+00
      3  0.000000D+00  0.000000D+00  0.193627D+01
      4 -0.708520D-01  0.000000D+00  0.000000D+00  0.354260D-01
      5  0.000000D+00 -0.708576D-01 -0.260208D-02  0.000000D+00  0.354326D-01
      6  0.000000D+00 -0.212681D-02 -0.968135D+00  0.000000D+00  0.236445D-02
      7 -0.708520D-01  0.000000D+00  0.000000D+00  0.354260D-01  0.000000D+00
      8  0.000000D+00 -0.708576D-01  0.260208D-02  0.000000D+00  0.354250D-01
      9  0.000000D+00  0.212681D-02 -0.968135D+00  0.000000D+00  0.237634D-03
                6             7             8             9 
      6  0.104579D+01
      7  0.000000D+00  0.354260D-01
      8 -0.237634D-03  0.000000D+00  0.354326D-01
      9 -0.776595D-01  0.000000D+00 -0.236445D-02  0.104579D+01
 Leave Link  716 at Mon Jun 22 15:42:28 2020, MaxMem=   134217728 cpu:         0.0
 (Enter /cluster/apps/gaussian/g09/l106.exe)
 NDeriv=   4 NFrqRd=  0 NDerD0=   0 MskFDP=       0 MskDFD=       0 MskDF0=       0
 Re-enter D2Numr: Normal Mode=  1 IStep= 1.
 Leave Link  106 at Mon Jun 22 15:42:28 2020, MaxMem=   134217728 cpu:         0.5
 (Enter /cluster/apps/gaussian/g09/l301.exe)
 Standard basis: CC-pVDZ (5D, 7F)
 Ernie: Thresh=  0.10000D-02 Tol=  0.10000D-05 Strict=F.
 Ernie:  6 primitive shells out of 66 were deleted.
    42 basis functions,    99 primitive gaussians,    45 cartesian basis functions
    11 alpha electrons       11 beta electrons
       nuclear repulsion energy        58.0218268739 Hartrees.
 IExCor=  402 DFT=T Ex+Corr=B3LYP ExCW=0 ScaHFX=  0.200000
 ScaDFX=  0.800000  0.720000  1.000000  0.810000 ScalE2=  1.000000  1.000000
 IRadAn=      5 IRanWt=     -1 IRanGd=            0 ICorTp=0 IEmpDi=  4
 NAtoms=    3 NActive=    3 NUniq=    3 SFac= 1.00D+00 NAtFMM=   60 NAOKFM=F Big=F
 Integral buffers will be    131072 words long.
 Raffenetti 2 integral format.
 Two-electron integral symmetry is turned off.
 Leave Link  301 at Mon Jun 22 15:42:28 2020, MaxMem=   134217728 cpu:         0.1
 (Enter /cluster/apps/gaussian/g09/l302.exe)
 NPDir=0 NMtPBC=     1 NCelOv=     1 NCel=       1 NClECP=     1 NCelD=      1
         NCelK=      1 NCelE2=     1 NClLst=     1 CellRange=     0.0.
 One-electron integrals computed using PRISM.
 NBasis=    42 RedAO= T EigKep=  1.80D-02  NBF=    42
 NBsUse=    42 1.00D-06 EigRej= -1.00D+00 NBFU=    42
 Precomputing XC quadrature grid using
 IXCGrd= 4 IRadAn=           5 IRanWt=          -1 IRanGd=           0 AccXCQ= 0.00D+00.
 Generated NRdTot=       0 NPtTot=           0 NUsed=           0 NTot=          32
 NSgBfM=    45    45    45    45    45 MxSgAt=     3 MxSgA2=     3.
 Leave Link  302 at Mon Jun 22 15:42:28 2020, MaxMem=   134217728 cpu:         1.0
 (Enter /cluster/apps/gaussian/g09/l303.exe)
 DipDrv:  MaxL=1.
 Leave Link  303 at Mon Jun 22 15:42:29 2020, MaxMem=   134217728 cpu:         0.4
 (Enter /cluster/apps/gaussian/g09/l401.exe)
 Initial guess from the checkpoint file:  "CO2_freq_B3LYP_ccpVDZ.chk"
 B after Tr=     0.000000    0.000000    0.000000
         Rot=    0.000000    0.000000    0.000000    1.000000 Ang= 180.00 deg.
 Guess basis will be translated and rotated to current coordinates.
 JPrj=2 DoOrth=T DoCkMO=T.
 Leave Link  401 at Mon Jun 22 15:42:29 2020, MaxMem=   134217728 cpu:         1.6
 (Enter /cluster/apps/gaussian/g09/l502.exe)
 Closed shell SCF:
 Using DIIS extrapolation, IDIIS=  1040.
 Two-electron integral symmetry not used.
 Keep R1 ints in memory in canonical form, NReq=1300565.
 IVT=       25171 IEndB=       25171 NGot=   134217728 MDV=   133784402
 LenX=   133784402 LenY=   133781936
 Requested convergence on RMS density matrix=1.00D-08 within 128 cycles.
 Requested convergence on MAX density matrix=1.00D-06.
 Requested convergence on             energy=1.00D-06.
 No special actions if energy rises.
 FoFCou: FMM=F IPFlag=           0 FMFlag=           0 FMFlg1=           0
         NFxFlg=           0 DoJE=F BraDBF=F KetDBF=F FulRan=T
         wScrn=  0.000000 ICntrl=     600 IOpCl=  0 I1Cent=           0 NGrid=           0
         NMat0=    1 NMatS0=    903 NMatT0=    0 NMatD0=    1 NMtDS0=    0 NMtDT0=    0
 Symmetry not used in FoFCou.

 Cycle   1  Pass 1  IDiag  1:
 E= -188.598464236647    
 DIIS: error= 3.91D-09 at cycle   1 NSaved=   1.
 NSaved= 1 IEnMin= 1 EnMin= -188.598464236647     IErMin= 1 ErrMin= 3.91D-09
 ErrMax= 3.91D-09  0.00D+00 EMaxC= 1.00D-01 BMatC= 8.35D-16 BMatP= 8.35D-16
 IDIUse=1 WtCom= 1.00D+00 WtEn= 0.00D+00
 Coeff-Com:  0.100D+01
 Coeff:      0.100D+01
 Gap=     1.120 Goal=   None    Shift=    0.000
 RMSDP=1.01D-09 MaxDP=1.03D-08              OVMax= 1.24D-08

 SCF Done:  E(RB3LYP) =  -188.598464237     A.U. after    1 cycles
            NFock=  1  Conv=0.10D-08     -V/T= 2.0058
 KE= 1.875137789692D+02 PE=-5.597586768127D+02 EE= 1.256246067330D+02
 Leave Link  502 at Mon Jun 22 15:42:30 2020, MaxMem=   134217728 cpu:         2.0
 (Enter /cluster/apps/gaussian/g09/l801.exe)
 DoSCS=F DFT=T ScalE2(SS,OS)=  1.000000  1.000000
 Range of M.O.s used for correlation:     1    42
 NBasis=    42 NAE=    11 NBE=    11 NFC=     0 NFV=     0
 NROrb=     42 NOA=    11 NOB=    11 NVA=    31 NVB=    31
 Leave Link  801 at Mon Jun 22 15:42:30 2020, MaxMem=   134217728 cpu:         0.1
 (Enter /cluster/apps/gaussian/g09/l1101.exe)
 Using compressed storage, NAtomX=     3.
 Will process      4 centers per pass.
 Leave Link 1101 at Mon Jun 22 15:42:31 2020, MaxMem=   134217728 cpu:         2.1
 (Enter /cluster/apps/gaussian/g09/l1102.exe)
 Symmetrizing basis deriv contribution to polar:
 IMax=3 JMax=2 DiffMx= 0.00D+00
 Leave Link 1102 at Mon Jun 22 15:42:31 2020, MaxMem=   134217728 cpu:         0.2
 (Enter /cluster/apps/gaussian/g09/l1110.exe)
 Forming Gx(P) for the SCF density, NAtomX=     3.
 Integral derivatives from FoFJK, PRISM(SPDF).
 Do as many integral derivatives as possible in FoFJK.
 G2DrvN: MDV=     134217600.
 G2DrvN: will do     4 centers at a time, making    1 passes.
 Calling FoFCou, ICntrl=  3107 FMM=F I1Cent=   0 AccDes= 0.00D+00.
 FoFJK:  IHMeth= 1 ICntrl=    3107 DoSepK=F KAlg= 0 I1Cent=   0 FoldK=F
 IRaf=         0 NMat=   1 IRICut=       1 DoRegI=T DoRafI=F ISym2E= 0.
 FoFCou: FMM=F IPFlag=           0 FMFlag=      100000 FMFlg1=           0
         NFxFlg=           0 DoJE=F BraDBF=F KetDBF=F FulRan=T
         wScrn=  0.000000 ICntrl=    3107 IOpCl=  0 I1Cent=           0 NGrid=           0
         NMat0=    1 NMatS0=      1 NMatT0=    0 NMatD0=    1 NMtDS0=    0 NMtDT0=    0
 Symmetry not used in FoFCou.
 End of G2Drv F.D. properties file   721 does not exist.
 End of G2Drv F.D. properties file   722 does not exist.
 End of G2Drv F.D. properties file   788 does not exist.
 Leave Link 1110 at Mon Jun 22 15:42:32 2020, MaxMem=   134217728 cpu:         3.6
 (Enter /cluster/apps/gaussian/g09/l1002.exe)
 Minotr:  Closed shell wavefunction.
          IDoAtm=111
          Direct CPHF calculation.
          Differentiating once with respect to electric field.
                with respect to dipole field.
          Differentiating once with respect to nuclear coordinates.
          Requested convergence is 1.0D-08 RMS, and 1.0D-07 maximum.
          Secondary convergence is 1.0D-12 RMS, and 1.0D-12 maximum.
          NewPWx=T KeepS1=F KeepF1=F KeepIn=T MapXYZ=F SortEE=F KeepMc=T.
          MDV=     134217652 using IRadAn=       4.
 Generate precomputed XC quadrature information.
 Keep R1 ints in memory in canonical form, NReq=1274924.
 FoFCou: FMM=F IPFlag=           0 FMFlag=           0 FMFlg1=           0
         NFxFlg=           0 DoJE=F BraDBF=F KetDBF=F FulRan=T
         wScrn=  0.000000 ICntrl=     600 IOpCl=  0 I1Cent=           0 NGrid=           0
         NMat0=    1 NMatS0=    903 NMatT0=    0 NMatD0=    1 NMtDS0=    0 NMtDT0=    0
 Symmetry not used in FoFCou.
          Solving linear equations simultaneously, MaxMat=       0.
          There are    12 degrees of freedom in the 1st order CPHF.  IDoFFX=6 NUNeed=     3.
      9 vectors produced by pass  0 Test12= 2.84D-15 8.33D-09 XBig12= 2.58D+01 3.40D+00.
 AX will form     9 AO Fock derivatives at one time.
      9 vectors produced by pass  1 Test12= 2.84D-15 8.33D-09 XBig12= 9.36D+00 1.43D+00.
      9 vectors produced by pass  2 Test12= 2.84D-15 8.33D-09 XBig12= 3.66D-02 7.18D-02.
      9 vectors produced by pass  3 Test12= 2.84D-15 8.33D-09 XBig12= 1.05D-04 3.59D-03.
      9 vectors produced by pass  4 Test12= 2.84D-15 8.33D-09 XBig12= 1.20D-07 1.44D-04.
      8 vectors produced by pass  5 Test12= 2.84D-15 8.33D-09 XBig12= 4.53D-11 2.32D-06.
      3 vectors produced by pass  6 Test12= 2.84D-15 8.33D-09 XBig12= 2.19D-14 5.76D-08.
 InvSVY:  IOpt=1 It=  1 EMax= 4.44D-16
 Solved reduced A of dimension    56 with     9 vectors.
 FullF1:  Do perturbations    1 to     3.
 Isotropic polarizability for W=    0.000000       12.22 Bohr**3.
 End of Minotr F.D. properties file   721 does not exist.
 End of Minotr F.D. properties file   722 does not exist.
 End of Minotr F.D. properties file   788 does not exist.
 Leave Link 1002 at Mon Jun 22 15:42:38 2020, MaxMem=   134217728 cpu:        17.1
 (Enter /cluster/apps/gaussian/g09/l601.exe)
 Copying SCF densities to generalized density rwf, IOpCl= 0 IROHF=0.

 **********************************************************************

            Population analysis using the SCF density.

 **********************************************************************

 Alpha  occ. eigenvalues --  -19.22372 -19.22372 -10.38051  -1.15980  -1.11924
 Alpha  occ. eigenvalues --   -0.56132  -0.51663  -0.51209  -0.51209  -0.36755
 Alpha  occ. eigenvalues --   -0.36755
 Alpha virt. eigenvalues --    0.03299   0.03304   0.08155   0.34268   0.41443
 Alpha virt. eigenvalues --    0.41443   0.54031   0.74394   0.83045   0.86775
 Alpha virt. eigenvalues --    0.86776   1.03934   1.03934   1.07642   1.08727
 Alpha virt. eigenvalues --    1.08728   1.29443   1.29450   1.58889   2.03183
 Alpha virt. eigenvalues --    2.52072   2.52072   2.64770   2.64770   2.70177
 Alpha virt. eigenvalues --    2.73644   2.73745   3.36662   3.47058   3.47059
 Alpha virt. eigenvalues --    3.50035
          Condensed to atoms (all electrons):
               1          2          3
     1  C    4.203610   0.753922   0.753922
     2  O    0.753922   7.417159  -0.026808
     3  O    0.753922  -0.026808   7.417159
 Mulliken charges:
               1
     1  C    0.288546
     2  O   -0.144273
     3  O   -0.144273
 Sum of Mulliken charges =   0.00000
 Mulliken charges with hydrogens summed into heavy atoms:
               1
     1  C    0.288546
     2  O   -0.144273
     3  O   -0.144273
 APT charges:
               1
     1  C    1.095543
     2  O   -0.547771
     3  O   -0.547771
 Sum of APT charges =   0.00000
 APT charges with hydrogens summed into heavy atoms:
               1
     1  C    1.095543
     2  O   -0.547771
     3  O   -0.547771
 Electronic spatial extent (au):  <R**2>=            113.2409
 Charge=              0.0000 electrons
 Dipole moment (field-independent basis, Debye):
    X=              0.0000    Y=             -0.0082    Z=              0.0000  Tot=              0.0082
 Quadrupole moment (field-independent basis, Debye-Ang):
   XX=            -14.4451   YY=            -14.4450   ZZ=            -18.6886
   XY=              0.0000   XZ=              0.0000   YZ=              0.0000
 Traceless Quadrupole moment (field-independent basis, Debye-Ang):
   XX=              1.4145   YY=              1.4145   ZZ=             -2.8290
   XY=              0.0000   XZ=              0.0000   YZ=              0.0000
 Octapole moment (field-independent basis, Debye-Ang**2):
  XXX=              0.0000  YYY=              0.0055  ZZZ=              0.0000  XYY=              0.0000
  XXY=              0.0018  XXZ=              0.0000  XZZ=              0.0000  YZZ=              0.0073
  YYZ=              0.0000  XYZ=              0.0000
 Hexadecapole moment (field-independent basis, Debye-Ang**3):
 XXXX=            -10.4924 YYYY=            -10.4926 ZZZZ=            -99.0412 XXXY=              0.0000
 XXXZ=              0.0000 YYYX=              0.0000 YYYZ=              0.0000 ZZZX=              0.0000
 ZZZY=              0.0000 XXYY=             -3.4975 XXZZ=            -17.7489 YYZZ=            -17.7489
 XXYZ=              0.0000 YYXZ=              0.0000 ZZXY=              0.0000
 N-N= 5.802182687387D+01 E-N=-5.597586771234D+02  KE= 1.875137789692D+02
  Exact polarizability:   7.607   0.000   7.607   0.000   0.000  21.442
 Approx polarizability:   9.661   0.000   9.661   0.000   0.000  45.793
 No NMR shielding tensors so no spin-rotation constants.
 Leave Link  601 at Mon Jun 22 15:42:38 2020, MaxMem=   134217728 cpu:         1.0
 (Enter /cluster/apps/gaussian/g09/l701.exe)
 Compute integral second derivatives.
 ... and contract with generalized density number  0.
 Leave Link  701 at Mon Jun 22 15:42:39 2020, MaxMem=   134217728 cpu:         0.9
 (Enter /cluster/apps/gaussian/g09/l702.exe)
 L702 exits ... SP integral derivatives will be done elsewhere.
 Leave Link  702 at Mon Jun 22 15:42:39 2020, MaxMem=   134217728 cpu:         0.1
 (Enter /cluster/apps/gaussian/g09/l703.exe)
 Compute integral second derivatives, UseDBF=F ICtDFT=           0.
 Integral derivatives from FoFJK, PRISM(SPDF).
 Calling FoFJK, ICntrl=    100127 FMM=F ISym2X=0 I1Cent= 0 IOpClX= 0 NMat=1 NMatS=1 NMatT=0.
 FoFJK:  IHMeth= 1 ICntrl=  100127 DoSepK=F KAlg= 0 I1Cent=   0 FoldK=F
 IRaf=         0 NMat=   1 IRICut=       1 DoRegI=T DoRafI=F ISym2E= 0.
 FoFCou: FMM=F IPFlag=           0 FMFlag=      100000 FMFlg1=         800
         NFxFlg=           0 DoJE=F BraDBF=F KetDBF=F FulRan=T
         wScrn=  0.000000 ICntrl=  100127 IOpCl=  0 I1Cent=           0 NGrid=           0
         NMat0=    1 NMatS0=      1 NMatT0=    0 NMatD0=    1 NMtDS0=    0 NMtDT0=    0
 Symmetry not used in FoFCou.
 Leave Link  703 at Mon Jun 22 15:42:40 2020, MaxMem=   134217728 cpu:         3.3
 (Enter /cluster/apps/gaussian/g09/l716.exe)
 Dipole        = 1.72849374D-14-3.23982445D-03-1.64710606D-12
 Polarizability= 7.60666443D+00-3.53015196D-13 7.60682094D+00
                 1.82585084D-14 2.88569700D-12 2.14419443D+01
 -------------------------------------------------------------------
 Center     Atomic                   Forces (Hartrees/Bohr)
 Number     Number              X              Y              Z
 -------------------------------------------------------------------
      1        6           0.000000000    0.000906486    0.000000000
      2        8           0.000000000   -0.000453243    0.000003216
      3        8           0.000000000   -0.000453243   -0.000003216
 -------------------------------------------------------------------
 Cartesian Forces:  Max     0.000906486 RMS     0.000370075
 Force constants in Cartesian coordinates: 
                1             2             3             4             5 
      1  0.141704D+00
      2  0.000000D+00  0.141715D+00
      3  0.000000D+00  0.000000D+00  0.193627D+01
      4 -0.708520D-01  0.000000D+00  0.000000D+00  0.354260D-01
      5  0.000000D+00 -0.708576D-01  0.260208D-02  0.000000D+00  0.354326D-01
      6  0.000000D+00  0.212681D-02 -0.968135D+00  0.000000D+00 -0.236445D-02
      7 -0.708520D-01  0.000000D+00  0.000000D+00  0.354260D-01  0.000000D+00
      8  0.000000D+00 -0.708576D-01 -0.260208D-02  0.000000D+00  0.354250D-01
      9  0.000000D+00 -0.212681D-02 -0.968135D+00  0.000000D+00 -0.237635D-03
                6             7             8             9 
      6  0.104579D+01
      7  0.000000D+00  0.354260D-01
      8  0.237635D-03  0.000000D+00  0.354326D-01
      9 -0.776595D-01  0.000000D+00  0.236445D-02  0.104579D+01
 Leave Link  716 at Mon Jun 22 15:42:40 2020, MaxMem=   134217728 cpu:         0.1
 (Enter /cluster/apps/gaussian/g09/l106.exe)
 NDeriv=   4 NFrqRd=  0 NDerD0=   0 MskFDP=       0 MskDFD=       0 MskDF0=       0
 Re-enter D2Numr: Normal Mode=  1 IStep= 2.
 Leave Link  106 at Mon Jun 22 15:42:40 2020, MaxMem=   134217728 cpu:         0.6
 (Enter /cluster/apps/gaussian/g09/l301.exe)
 Standard basis: CC-pVDZ (5D, 7F)
 Ernie: Thresh=  0.10000D-02 Tol=  0.10000D-05 Strict=F.
 Ernie:  6 primitive shells out of 66 were deleted.
    42 basis functions,    99 primitive gaussians,    45 cartesian basis functions
    11 alpha electrons       11 beta electrons
       nuclear repulsion energy        58.0218268739 Hartrees.
 IExCor=  402 DFT=T Ex+Corr=B3LYP ExCW=0 ScaHFX=  0.200000
 ScaDFX=  0.800000  0.720000  1.000000  0.810000 ScalE2=  1.000000  1.000000
 IRadAn=      5 IRanWt=     -1 IRanGd=            0 ICorTp=0 IEmpDi=  4
 NAtoms=    3 NActive=    3 NUniq=    3 SFac= 1.00D+00 NAtFMM=   60 NAOKFM=F Big=F
 Integral buffers will be    131072 words long.
 Raffenetti 2 integral format.
 Two-electron integral symmetry is turned off.
 Leave Link  301 at Mon Jun 22 15:42:40 2020, MaxMem=   134217728 cpu:         0.1
 (Enter /cluster/apps/gaussian/g09/l302.exe)
 NPDir=0 NMtPBC=     1 NCelOv=     1 NCel=       1 NClECP=     1 NCelD=      1
         NCelK=      1 NCelE2=     1 NClLst=     1 CellRange=     0.0.
 One-electron integrals computed using PRISM.
 NBasis=    42 RedAO= T EigKep=  1.80D-02  NBF=    42
 NBsUse=    42 1.00D-06 EigRej= -1.00D+00 NBFU=    42
 Precomputing XC quadrature grid using
 IXCGrd= 4 IRadAn=           5 IRanWt=          -1 IRanGd=           0 AccXCQ= 0.00D+00.
 Generated NRdTot=       0 NPtTot=           0 NUsed=           0 NTot=          32
 NSgBfM=    45    45    45    45    45 MxSgAt=     3 MxSgA2=     3.
 Leave Link  302 at Mon Jun 22 15:42:41 2020, MaxMem=   134217728 cpu:         1.3
 (Enter /cluster/apps/gaussian/g09/l303.exe)
 DipDrv:  MaxL=1.
 Leave Link  303 at Mon Jun 22 15:42:41 2020, MaxMem=   134217728 cpu:         0.6
 (Enter /cluster/apps/gaussian/g09/l401.exe)
 Initial guess from the checkpoint file:  "CO2_freq_B3LYP_ccpVDZ.chk"
 B after Tr=     0.000000    0.000000    0.000000
         Rot=    1.000000    0.000000    0.000000    0.000000 Ang=   0.00 deg.
 Guess basis will be translated and rotated to current coordinates.
 JPrj=2 DoOrth=T DoCkMO=T.
 Leave Link  401 at Mon Jun 22 15:42:42 2020, MaxMem=   134217728 cpu:         1.8
 (Enter /cluster/apps/gaussian/g09/l502.exe)
 Closed shell SCF:
 Using DIIS extrapolation, IDIIS=  1040.
 Two-electron integral symmetry not used.
 Keep R1 ints in memory in canonical form, NReq=1300565.
 IVT=       25171 IEndB=       25171 NGot=   134217728 MDV=   133784402
 LenX=   133784402 LenY=   133781936
 Requested convergence on RMS density matrix=1.00D-08 within 128 cycles.
 Requested convergence on MAX density matrix=1.00D-06.
 Requested convergence on             energy=1.00D-06.
 No special actions if energy rises.
 FoFCou: FMM=F IPFlag=           0 FMFlag=           0 FMFlg1=           0
         NFxFlg=           0 DoJE=F BraDBF=F KetDBF=F FulRan=T
         wScrn=  0.000000 ICntrl=     600 IOpCl=  0 I1Cent=           0 NGrid=           0
         NMat0=    1 NMatS0=    903 NMatT0=    0 NMatD0=    1 NMtDS0=    0 NMtDT0=    0
 Symmetry not used in FoFCou.

 Cycle   1  Pass 1  IDiag  1:
 E= -188.598454344213    
 DIIS: error= 5.55D-04 at cycle   1 NSaved=   1.
 NSaved= 1 IEnMin= 1 EnMin= -188.598454344213     IErMin= 1 ErrMin= 5.55D-04
 ErrMax= 5.55D-04  0.00D+00 EMaxC= 1.00D-01 BMatC= 7.18D-06 BMatP= 7.18D-06
 IDIUse=3 WtCom= 9.94D-01 WtEn= 5.55D-03
 Coeff-Com:  0.100D+01
 Coeff-En:   0.100D+01
 Coeff:      0.100D+01
 Gap=     1.120 Goal=   None    Shift=    0.000
 RMSDP=9.45D-05 MaxDP=8.23D-04              OVMax= 1.30D-03

 Cycle   2  Pass 1  IDiag  1:
 E= -188.598464122080     Delta-E=       -0.000009777867 Rises=F Damp=F
 DIIS: error= 5.54D-05 at cycle   2 NSaved=   2.
 NSaved= 2 IEnMin= 2 EnMin= -188.598464122080     IErMin= 2 ErrMin= 5.54D-05
 ErrMax= 5.54D-05  0.00D+00 EMaxC= 1.00D-01 BMatC= 1.02D-07 BMatP= 7.18D-06
 IDIUse=1 WtCom= 1.00D+00 WtEn= 0.00D+00
 Coeff-Com: -0.562D-01 0.106D+01
 Coeff:     -0.562D-01 0.106D+01
 Gap=     0.401 Goal=   None    Shift=    0.000
 RMSDP=9.12D-06 MaxDP=9.36D-05 DE=-9.78D-06 OVMax= 2.22D-04

 Cycle   3  Pass 1  IDiag  1:
 E= -188.598464224736     Delta-E=       -0.000000102656 Rises=F Damp=F
 DIIS: error= 2.14D-05 at cycle   3 NSaved=   3.
 NSaved= 3 IEnMin= 3 EnMin= -188.598464224736     IErMin= 3 ErrMin= 2.14D-05
 ErrMax= 2.14D-05  0.00D+00 EMaxC= 1.00D-01 BMatC= 1.46D-08 BMatP= 1.02D-07
 IDIUse=1 WtCom= 1.00D+00 WtEn= 0.00D+00
 Coeff-Com: -0.221D-01 0.309D+00 0.713D+00
 Coeff:     -0.221D-01 0.309D+00 0.713D+00
 Gap=     0.401 Goal=   None    Shift=    0.000
 RMSDP=1.90D-06 MaxDP=1.05D-05 DE=-1.03D-07 OVMax= 4.80D-05

 Cycle   4  Pass 1  IDiag  1:
 E= -188.598464236503     Delta-E=       -0.000000011767 Rises=F Damp=F
 DIIS: error= 1.75D-06 at cycle   4 NSaved=   4.
 NSaved= 4 IEnMin= 4 EnMin= -188.598464236503     IErMin= 4 ErrMin= 1.75D-06
 ErrMax= 1.75D-06  0.00D+00 EMaxC= 1.00D-01 BMatC= 2.02D-10 BMatP= 1.46D-08
 IDIUse=1 WtCom= 1.00D+00 WtEn= 0.00D+00
 Coeff-Com: -0.411D-02 0.463D-01 0.149D+00 0.809D+00
 Coeff:     -0.411D-02 0.463D-01 0.149D+00 0.809D+00
 Gap=     0.401 Goal=   None    Shift=    0.000
 RMSDP=3.48D-07 MaxDP=4.27D-06 DE=-1.18D-08 OVMax= 7.18D-06

 Cycle   5  Pass 1  IDiag  1:
 E= -188.598464236478     Delta-E=        0.000000000024 Rises=F Damp=F
 DIIS: error= 2.18D-06 at cycle   5 NSaved=   5.
 NSaved= 5 IEnMin= 4 EnMin= -188.598464236503     IErMin= 4 ErrMin= 1.75D-06
 ErrMax= 2.18D-06  0.00D+00 EMaxC= 1.00D-01 BMatC= 2.36D-10 BMatP= 2.02D-10
 IDIUse=1 WtCom= 1.00D+00 WtEn= 0.00D+00
 Coeff-Com: -0.102D-03-0.663D-02 0.153D-01 0.547D+00 0.444D+00
 Coeff:     -0.102D-03-0.663D-02 0.153D-01 0.547D+00 0.444D+00
 Gap=     0.401 Goal=   None    Shift=    0.000
 RMSDP=1.90D-07 MaxDP=2.45D-06 DE= 2.44D-11 OVMax= 4.03D-06

 Cycle   6  Pass 1  IDiag  1:
 E= -188.598464236648     Delta-E=       -0.000000000170 Rises=F Damp=F
 DIIS: error= 6.88D-08 at cycle   6 NSaved=   6.
 NSaved= 6 IEnMin= 6 EnMin= -188.598464236648     IErMin= 6 ErrMin= 6.88D-08
 ErrMax= 6.88D-08  0.00D+00 EMaxC= 1.00D-01 BMatC= 3.27D-13 BMatP= 2.02D-10
 IDIUse=1 WtCom= 1.00D+00 WtEn= 0.00D+00
 Coeff-Com:  0.113D-03-0.194D-02-0.103D-05 0.604D-01 0.733D-01 0.868D+00
 Coeff:      0.113D-03-0.194D-02-0.103D-05 0.604D-01 0.733D-01 0.868D+00
 Gap=     0.401 Goal=   None    Shift=    0.000
 RMSDP=9.40D-09 MaxDP=9.19D-08 DE=-1.70D-10 OVMax= 2.20D-07

 SCF Done:  E(RB3LYP) =  -188.598464237     A.U. after    6 cycles
            NFock=  6  Conv=0.94D-08     -V/T= 2.0058
 KE= 1.875137787371D+02 PE=-5.597586759596D+02 EE= 1.256246061120D+02
 Leave Link  502 at Mon Jun 22 15:42:45 2020, MaxMem=   134217728 cpu:         8.3
 (Enter /cluster/apps/gaussian/g09/l801.exe)
 DoSCS=F DFT=T ScalE2(SS,OS)=  1.000000  1.000000
[...]
 -------------------------------
                 a              b              c 
 Q( 1)       20.99446       62.85670        0.00000
 Q( 2)******************************        0.00000
 Q( 3)        4.91985       -5.25074        0.00000
 Q( 4)        3.51544        0.50220        0.00000

     ==================================================
          Quartic Centrifugal Distortion Constants
     ==================================================

 NOTE: Values in Cartesian coords. refer to the structure in Input orientation


 Quartic Centrifugal Distortion Constants Tau Prime
 --------------------------------------------------
                      cm^-1                    MHz
 TauP aaaa     -0.7976684636D+57        -0.2391349894D+62
 TauP bbaa     -0.3530749623D+26        -0.1058492108D+31
 TauP bbbb     -0.2751838267D-06        -0.8249803582D-02
 cm-1                       MHz
 De    0.1994171159D+57         0.5978374734D+61

     ==================================================
           Sextic Centrifugal Distortion Constants
     ==================================================


 Sextic Distortion Constants
 ---------------------------
                       in cm-1                  in Hz
 Phi aaa         0.3085305765+114         0.9249513990+124
 Phi aab         0.3970100070-316         0.0000000000D+00
 Phi abb                      NaN                      NaN
 Phi bbb         0.1367180803D+19         0.4098704934D+29

 Linear molecule
 ---------------
                       cm^-1                    Hz
 He               0.3085305765+114         0.9249513990+124

     ==================================================
            Rotational l-type doubling constants
     ==================================================
 Ref.: J.K.G. Watson, J. Mol. Spectry. 101, 83 (1983)
       q_i = q_i^e + (q_i^J)*J(J+1) + (q_i^K)*K(K+-1)^2

 q^e constants (in cm^-1)
 ------------------------


 q^J constants (in cm^-1)
 ------------------------


 q^K constants (in cm^-1)
 ------------------------


     ==================================================
                     Resonance Analysis
     ==================================================

 Thresholds
 ----------
 Maximum Difference PT2 vs. Variational (cm-1) :      1.000
 Minimum value for Darling-Dennison term (cm-1):     10.000

 Fermi resonances
 ----------------
   I   J + K   Freq.Diff.  Reduced Cubic Const.  PT2-Variat.Diff.
   2   3   3       52.304        122.442                6.136

    1 Active Fermi resonances over    1

 Darling-Dennison resonances
 ---------------------------
  I  J     Freq.Diff.  Reduced Darl.Denn.
  4  3         0.000       -15.438

    1 Active Darling-Dennison resonances over    1

     ==================================================
                     Anharmonic X Matrix
     ==================================================

 PT2 model: Deperturbed VPT2 (DVPT2)
 Ref.: V. Barone, J. Chem. Phys. 122, 1, 014108 (2005)

 Coriolis contributions to X Matrix (in cm^-1)
 ---------------------------------------------
                1             2             3             4
      1  0.000000D+00
      2  0.000000D+00  0.000000D+00
      3  0.147704D+01  0.000000D+00  0.000000D+00
      4  0.135179D+01  0.000000D+00  0.773353D+00  0.000000D+00

 3rd Deriv. contributions to X Matrix (in cm^-1)
 -----------------------------------------------
                1             2             3             4
      1 -0.223025D+02
      2 -0.225537D+02 -0.535237D+01
      3  0.161929D+02  0.377951D+01 -0.155086D+01
      4  0.189294D+02 -0.119660D+02 -0.698402D+01 -0.922365D+00

 4th Deriv. contributions to X Matrix (in cm^-1)
 -----------------------------------------------
                1             2             3             4
      1  0.990759D+01
      2  0.201586D+02  0.263044D+01
      3 -0.255402D+02 -0.102629D+02  0.378614D+01
      4 -0.183834D+02 -0.673592D+01 -0.220409D+01  0.120289D+01

 Total Anharmonic X Matrix (in cm^-1)
 ------------------------------------
                1             2             3             4
      1 -0.123949D+02
      2 -0.239509D+01 -0.272193D+01
      3 -0.787021D+01 -0.648338D+01  0.223529D+01
      4  0.189785D+01 -0.187019D+02 -0.841475D+01  0.280522D+00

     ==================================================
            Deperturbed terms for anharmonicity
     ==================================================

 Deperturbed terms in FMat (Fermi Resonances)
 --------------------------------------------

         2                           3   3
    0.13431D+04    0.30611D+02    0.13007D+04

 Deperturbed terms in FMat (Darling-Dennison Resonances)
-------------------------------------------------------

       4   4                           3   3
    0.12865D+04   -0.38594D+01    0.13007D+04

 Vibrational Energies (cm^-1)
 ----------------------------
  Mode(Quanta)   E(depert.)  E(after diag.)
   2(1)           1343.146     1359.220
   3(2)           1300.719     1282.058
   4(2)           1286.540     1289.128

     ==================================================
                Anharmonic Zero Point Energy
     ==================================================

 Anharmonic Zero Point Energy
 ----------------------------
 Harmonic       : cm-1 =  2546.95690 ; Kcal/mol =   7.282 ; KJ/mol =  30.468
 Anharm.Pot.    : cm-1 =   -15.74791 ; Kcal/mol =  -0.045 ; KJ/mol =  -0.188
 Watson+Coriolis: cm-1 =     0.28938 ; Kcal/mol =   0.001 ; KJ/mol =   0.003
 X0F (Im. Freq.): cm-1 =     0.00000 ; Kcal/mol =   0.000 ; KJ/mol =   0.000
 Total Anharm   : cm-1 =  2531.49838 ; Kcal/mol =   7.238 ; KJ/mol =  30.283

     ==================================================
          Vibrational Energies at Anharmonic Level
     ==================================================

 Vibrational Energies and Rotational Constants (in cm^-1)
 --------------------------------------------------------
 Mode(Quanta)      E(harm)     E(anharm)     Aa(x)       Ba(y)       Ca(z)
 Equilibrium Geometry                        0.386677    0.386677    0.000000
 Ground State       2546.957    2531.498   *********** ***********    0.000000
 Fundamental Bands (DE w.r.t. Ground State)
   1(1) active      2421.457    2392.484  *********** ***********    0.000000
   2(1) active      1362.380    1359.220  *********** ***********    0.000000
   3(1) active       655.038     648.124  *********** ***********    0.000000
   4(1) active       655.038     642.990  *********** ***********    0.000000
 Overtones (DE w.r.t. Ground State)
   1(2)             4842.915    4760.178  *********** ***********    0.000000
   2(2)             2724.760    2680.848  *********** ***********    0.000000
   3(2)             1310.076    1282.058  *********** ***********    0.000000
   4(2)             1310.076    1289.128  *********** ***********    0.000000
 Combination Bands (DE w.r.t. Ground State)
   2(1)    1(1)     3783.838    3733.235  *********** ***********    0.000000
   3(1)    1(1)     3076.496    3032.738  *********** ***********    0.000000
   3(1)    2(1)     2017.418    1984.787  *********** ***********    0.000000
   4(1)    1(1)     3076.496    3037.371  *********** ***********    0.000000
   4(1)    2(1)     2017.418    1967.434  *********** ***********    0.000000
   4(1)    3(1)     1310.076    1282.699  *********** ***********    0.000000

     ==================================================
               Anharmonic Transition Moments
     ==================================================

 Electric dipole : Fundamental Bands
 ------------------------------------------------------------------------
  Mode(Quanta)             X                 Y                 Z
    1(1)                0.944260E-01      0.585370E-01     -0.319547E-01
    2(1)               -0.551121E-14     -0.163572E-13     -0.350264E-14
    3(1)                0.200982E+08      0.310649E+08      0.176280E+07
    4(1)                0.500903E+07      0.151367E+08     -0.215103E+08

 Electric dipole : Overtones
 ------------------------------------------------------------------------
  Mode(Quanta)             X                 Y                 Z
    1(2)                0.936267E-16      0.277883E-15      0.595042E-16
    2(2)                0.190651E-15      0.565852E-15      0.121168E-15
    3(2)                0.674672E-16      0.200242E-15      0.428786E-16
    4(2)                0.104129E-14      0.309055E-14      0.661791E-15

 Electric dipole : Combination Bands
 ------------------------------------------------------------------------
  Mode(Quanta)             X                 Y                 Z
    2(1)    1(1)       -0.135539E-01     -0.889161E-02      0.463565E-02
    3(1)    1(1)       -0.928420E-16     -0.275554E-15     -0.590055E-16
    3(1)    2(1)       -0.117448E-01     -0.665016E-02      0.356446E-02
    4(1)    1(1)        0.166041E-15      0.492809E-15      0.105527E-15
    4(1)    2(1)        0.206370E-01      0.115374E-01     -0.713222E-02
    4(1)    3(1)        0.196975E-14      0.584621E-14      0.125187E-14
 ERROR: Missing derivatives of the polarizability tensor moment.

     ==================================================
              Anharmonic Infrared Spectroscopy
     ==================================================

 Units: Energies (E) in cm^-1
        Integrated intensity (I) in km.mol^-1

 Fundamental Bands
 -----------------
    Mode(Quanta)       E(harm)   E(anharm)       I(harm)        I(anharm)
     1(1)              2421.457   2392.484    577.56096780    517.77479900
     2(1)              1362.380   1359.220      0.00000000      0.00000000
     3(1)               655.038    648.124     49.04162265 ***************
     4(1)               655.038    642.990     93.86028640 ***************

 Overtones
 ---------
    Mode(Quanta)       E(harm)   E(anharm)                      I(anharm)
     1(2)              4842.915   4760.178                      0.00000000
     2(2)              2724.760   2680.848                      0.00000000
     3(2)              1310.076   1282.058                      0.00000000
     4(2)              1310.076   1289.128                      0.00000000

 Combination Bands
 -----------------
    Mode(Quanta)       E(harm)   E(anharm)                      I(anharm)
     2(1)     1(1)     3783.838   3733.235                     17.18518974
     3(1)     1(1)     3076.496   3032.738                      0.00000000
     3(1)     2(1)     2017.418   1984.787                      6.26352387
     4(1)     1(1)     3076.496   3037.371                      0.00000000
     4(1)     2(1)     2017.418   1967.434                     19.43087405
     4(1)     3(1)     1310.076   1282.699                      0.00000000

 Leave Link  717 at Mon Jun 22 15:44:04 2020, MaxMem=   134217728 cpu:         0.7
 (Enter /cluster/apps/gaussian/g09/l103.exe)

 GradGradGradGradGradGradGradGradGradGradGradGradGradGradGradGradGradGrad
 Berny optimization.
 Search for a local minimum.
 Step number   1 out of a maximum of    2
 All quantities printed in internal units (Hartrees-Bohrs-Radians)
 Second derivative matrix not updated -- analytic derivatives used.
 The second derivative matrix:
                          X1        Y1        Z1        X2        Y2
           X1           1.33814
           Y1           0.74276   0.60281
           Z1          -0.40502  -0.25144   0.27881
           X2          -0.66907  -0.37138   0.20251   0.70903
           Y2          -0.37138  -0.30140   0.12572   0.41818   0.29503
           Z2           0.20251   0.12572  -0.13940  -0.22803  -0.14156
           X3          -0.66907  -0.37138   0.20251  -0.03996  -0.04680
           Y3          -0.37138  -0.30140   0.12572  -0.04680   0.00637
           Z3           0.20251   0.12572  -0.13940   0.02552   0.01584
                          Z2        X3        Y3        Z3
           Z2           0.11262
           X3           0.02552   0.70903
           Y3           0.01584   0.41818   0.29503
           Z3           0.02679  -0.22803  -0.14156   0.11262
 ITU=  0
     Eigenvalues ---    0.21162   0.21162   1.12349   2.89190
 Angle between quadratic step and forces=   0.00 degrees.
 ClnCor:  largest displacement from symmetrization is 4.17D-14 for atom     1.
 Linear search not attempted -- first point.
 ClnCor:  largest displacement from symmetrization is 9.55D-16 for atom     2.
 TrRot=  0.000000  0.000000  0.000000  0.000000  0.000000  0.000000
 Variable       Old X    -DE/DX   Delta X   Delta X   Delta X     New X
                                 (Linear)    (Quad)   (Total)
    X1       -1.60368   0.00000   0.00000   0.00000   0.00000  -1.60368
    Y1        3.90724   0.00000   0.00000   0.00000   0.00000   3.90724
    Z1        0.30423   0.00000   0.00000   0.00000   0.00000   0.30423
    X2        0.19757   0.00000   0.00000   0.00000   0.00000   0.19757
    Y2        5.02546   0.00000   0.00000   0.00000   0.00000   5.02546
    Z2       -0.30553   0.00000   0.00000   0.00000   0.00000  -0.30553
    X3       -3.40492   0.00000   0.00000   0.00000   0.00000  -3.40492
    Y3        2.78902   0.00000   0.00000   0.00000   0.00000   2.78902
    Z3        0.91399   0.00000   0.00000   0.00000   0.00000   0.91399
         Item               Value     Threshold  Converged?
 Maximum Force            0.000003     0.000450     YES
 RMS     Force            0.000002     0.000300     YES
 Maximum Displacement     0.000003     0.001800     YES
 RMS     Displacement     0.000002     0.001200     YES
 Predicted change in Energy=-1.138240D-11
 Optimization completed.
    -- Stationary point found.
 GradGradGradGradGradGradGradGradGradGradGradGradGradGradGradGradGradGrad

 Leave Link  103 at Mon Jun 22 15:44:05 2020, MaxMem=   134217728 cpu:         1.0
 (Enter /cluster/apps/gaussian/g09/l9999.exe)
 1\1\GINC-EU-LOGIN-05\Freq\RB3LYP\CC-pVDZ\C1O2\OPAULINE\22-Jun-2020\0\\
 #p B3LYP/cc-pVDZ Freq=(Anharm) Int=Ultrafine SCF=VeryTight\\CO2 geomet
 ry optimization B3LYP/cc-pVDZ\\0,1\C,-0.848629,2.0676236364,0.160992\O
 ,0.1045479436,2.6593601013,-0.1616779809\O,-1.8018059436,1.4758871714,
 0.4836619809\\Version=ES64L-G09RevD.01\State=1-SGG\HF=-188.5984671\RMS
 D=9.094e-10\RMSF=1.686e-06\ZeroPoint=0.0116048\Thermal=0.0142382\Dipol
 e=0.,0.,0.\DipoleDeriv=1.6846622,0.7314316,-0.3988448,0.7314316,0.9605
 385,-0.2476046,-0.3988448,-0.2476046,0.6414797,-0.8423311,-0.3657158,0
 .1994224,-0.3657158,-0.4802692,0.1238023,0.1994224,0.1238023,-0.320739
 8,-0.8423311,-0.3657158,0.1994224,-0.3657158,-0.4802692,0.1238023,0.19
 94224,0.1238023,-0.3207398\Polar=16.830135,5.7259947,11.1613497,-3.122
 347,-1.9383669,8.6636055\Quadrupole=-1.0516582,0.2410391,0.8106191,-1.
 3057431,0.7120131,0.4420209\PG=D*H [O(C1),C*(O1.O1)]\NImag=0\\1.338143
 84,0.74275853,0.60280633,-0.40502132,-0.25143903,0.27880658,-0.6690719
 2,-0.37137927,0.20251066,0.70903426,-0.37137927,-0.30140317,0.12571951
 ,0.41818078,0.29503159,0.20251066,0.12571951,-0.13940329,-0.22803121,-
 0.14156279,0.11261637,-0.66907192,-0.37137927,0.20251066,-0.03996234,-
 0.04680151,0.02552055,0.70903426,-0.37137927,-0.30140317,0.12571951,-0
 .04680151,0.00637157,0.01584327,0.41818078,0.29503159,0.20251066,0.125
 71951,-0.13940329,0.02552055,0.01584327,0.02678693,-0.22803121,-0.1415
 6279,0.11261637\\0.,0.,0.,-0.00000292,-0.00000181,0.00000099,0.0000029
 2,0.00000181,-0.00000099\\-0.00000023,0.00000032,-0.00000054,-0.000000
 18,-0.00000011,-0.00000068,-0.06625114,0.05076449,0.05892041,0.0662510
 0,0.07129954,0.10131146,-0.00148140,-0.06103208,-0.10131153,0.06707531
 ,0.01053274,-0.03505960,-0.06299782,-0.00452565,0.03505957,0.06625136,
 -0.05076481,-0.05892024,0.00000013,-0.01026746,-0.00407749,-0.06625150
 ,-0.07129986,-0.10131092,0.00148150,0.01026760,0.00000007,-0.00600709,
 0.06103226,0.10131086,-0.06707513,-0.01053263,0.03506028,0.00407741,0.
 00600704,0.00000003,0.06299772,0.00452559,-0.03506032,-0.00000023,0.00
 000032,-0.00000054,-0.00000017,-0.00000011,-0.00000068,0.09760420,0.00
 354487,0.05685028,-0.09760434,-0.00920339,-0.04112880,0.05892038,0.002
 82919,0.04112873,0.07693783,0.06707528,-0.05647468,-0.06689402,-0.0629
 9780,0.05647465,-0.09760398,-0.00354519,-0.05685010,0.00000014,0.00637
 420,-0.01004382,0.09760384,0.00920307,0.04112934,-0.05892027,-0.006374
 06,0.00000006,-0.00407747,-0.00282901,-0.04112941,-0.07693766,-0.06707
 517,0.05647536,0.01004374,0.00407742,0.00000004,0.06689392,0.06299774,
 -0.05647539,-0.86457041,-0.60972217,-0.26094008,0.33247747,0.20640348,
 0.00502769,0.43228521,0.30486109,-0.16623873,-0.44578526,0.30486109,0.
 13047004,-0.10320174,-0.32294571,-0.12606616,-0.16623873,-0.10320174,-
 0.00251385,0.17610016,0.10932376,0.01480645,0.43228521,0.30486109,-0.1
 6623873,0.01350006,0.01808463,-0.00986143,-0.44578527,0.30486109,0.130
 47004,-0.10320174,0.01808463,-0.00440388,-0.00612202,-0.32294571,-0.12
 606616,-0.16623873,-0.10320174,-0.00251385,-0.00986143,-0.00612202,-0.
 01229260,0.17610016,0.10932376,0.01480645,0.00000027,-0.00000017,0.000
 00044,0.00000009,0.00000006,0.00000052,-0.81932111,-0.59413673,0.32397
 883,0.81932119,-0.59413673,-0.23112050,0.20112749,0.59413677,0.2311205
 3,0.32397883,0.20112749,0.02804873,-0.32397885,-0.20112751,-0.02804871
 ,0.81932084,0.59413690,-0.32397892,-0.00000008,-0.00000004,0.00000002,
 -0.81932076,0.59413690,0.23112005,-0.20112755,-0.00000004,-0.00000004,
 0.00000001,-0.59413687,-0.23112002,-0.32397892,-0.20112755,-0.02804924
 ,0.00000002,0.00000001,-0.00000002,0.32397890,0.20112754,0.02804926,-0
 .31710164,-0.23634150,-0.06587947,0.10981351,0.09979239,0.00640163,0.1
 5854916,0.11817354,-0.05490468,-0.14520929,0.11817102,0.03294227,-0.04
 989534,-0.11218844,-0.02400378,-0.05490568,-0.04989682,-0.00320169,0.0
 4995883,0.04961776,0.00680874,0.15855247,0.11816796,-0.05490883,-0.013
 33988,-0.00598258,0.00494685,-0.14521261,0.11817048,0.03293720,-0.0498
 9704,-0.00598510,-0.00893850,0.00027906,-0.11218538,-0.02399871,-0.054
 90783,-0.04989557,-0.00319994,0.00494584,0.00027758,-0.00360706,0.0499
 6199,0.04961799,0.00680698,-0.30942532,-0.22984854,-0.09911523,0.14439
 683,0.05802252,0.03196108,0.15471510,0.11492342,-0.07219551,-0.1406973
 3,0.11492498,0.04955659,-0.02900918,-0.10836695,-0.04355322,-0.0721979
 7,-0.02901018,-0.01598196,0.07030451,0.02504258,0.02184620,0.15471021,
 0.11492512,-0.07220132,-0.01401779,-0.00655802,0.00189346,-0.14069243,
 0.11492356,0.04955864,-0.02901334,-0.00655646,-0.00600339,0.00396760,-
 0.10836710,-0.04355526,-0.07219886,-0.02901234,-0.01597913,0.00189099,
 0.00396659,-0.00586427,0.07030786,0.02504574,0.02184338,0.44776057,0.3
 5008156,0.10117674,-0.19089716,-0.11850980,-0.05153283,-0.22388029,-0.
 17504078,0.09544858,0.23063563,-0.17504078,-0.05058837,0.05925490,0.18
 395647,0.04851710,0.09544858,0.05925490,0.02576641,-0.10031024,-0.0622
 7304,-0.03172681,-0.22388029,-0.17504078,0.09544858,-0.00675535,-0.008
 91569,0.00486167,0.23063562,-0.17504078,-0.05058837,0.05925490,-0.0089
 1569,0.00207126,0.00301814,0.18395647,0.04851709,0.09544858,0.05925490
 ,0.02576641,0.00486167,0.00301814,0.00596039,-0.10031025,-0.06227304,-
 0.03172683,1.53257698,1.26259666,0.28259513,-0.68848561,-0.42741491,-0
 .26816394,-0.76630048,-0.63130299,0.34424534,0.78859702,-0.63130299,-0
 .14130495,0.21370903,0.64239667,0.15261864,0.34424534,0.21370903,0.134
 07662,-0.35029465,-0.21746447,-0.12760211,-0.76627650,-0.63129368,0.34
 424026,-0.02229655,-0.01109367,0.00604931,0.78857304,-0.63129368,-0.14
 129019,0.21370588,-0.01109367,-0.01131372,0.00375544,0.64238736,0.1526
 0389,0.34424027,0.21370588,0.13408732,0.00604930,0.00375543,-0.0064745
 4,-0.35028958,-0.21746132,-0.12761281\\@


 ART, GLORY, FREEDOM FAIL, BUT NATURE STILL IS FAIR.

                                           -- BYRON
 Job cpu time:       0 days  0 hours  6 minutes 33.8 seconds.
 File lengths (MBytes):  RWF=     47 Int=      0 D2E=      0 Chk=     38 Scr=      1
 Normal termination of Gaussian 09 at Mon Jun 22 15:44:05 2020.
