&FCI NORB=   2,NELEC=   2,MS2= 0,
  ORBSYM=1,1,
  ISYM=0,
 /
 6.7571015480351648E-01   1   1   1   1
 6.6458173025529665E-01   1   1   2   2
 1.8093119978423133E-01   1   2   1   2
 6.9857372273201834E-01   2   2   2   2
-1.2563390730032502E+00   1   1   0   0
-2.3575299028703285E-16   1   2   0   0
-4.7189600728114062E-01   2   2   0   0
 7.1996899444897966E-01   0   0   0   0
