&FCI NORB=   2,NELEC=   2,MS2= 0,
  ORBSYM=1,1,
  ISYM=0,
 /
 6.7571015480351648E-01   1   1   1   1
 6.6458173025529665E-01   1   1   2   2
 1.8093119978423133E-01   1   2   1   2
 6.9857372273201834E-01   2   2   2   2
 6.7571015480351682E-01   1   1   3   3
 6.6458173025529654E-01   1   1   4   4
-1.8093119978423133E-01   1   2   3   4
 6.6458173025529710E-01   2   2   3   3
 6.9857372273201834E-01   2   2   4   4
 6.7571015480351704E-01   3   3   3   3
 6.6458173025529732E-01   3   3   4   4
 1.8093119978423153E-01   3   4   3   4
 6.9857372273201845E-01   4   4   4   4
-1.2563390730032502E+00   1   1   0   0
-2.3575299028703285E-16   1   2   0   0
-4.7189600728114062E-01   2   2   0   0
-1.2563390730032507E+00   3   3   0   0
-6.7113779463559231E-17   3   4   0   0
-4.7189600728114073E-01   4   4   0   0
 7.1996899444897966E-01   0   0   0   0
