&FCI NORB=   6,NELEC=   4,MS2= 0,
  ORBSYM=1,1,1,1,1,1,
  ISYM=0,
 /
 1.6586546376776659E+00   1   1   1   1
-1.1185240211600889E-01   1   1   1   2
 1.3848665625981069E-01   1   1   1   3
 1.1480489585912616E-12   1   1   1   4
 5.3156150905632020E-02   1   1   1   6
 3.6672307192919318E-01   1   1   2   2
-1.3490862041788740E-02   1   1   2   3
-4.1444544917724473E-02   1   1   2   6
 3.9560609300166527E-01   1   1   3   3
-1.7570190757927876E-02   1   1   3   6
 3.9615805756229605E-01   1   1   4   4
 3.9615805756231426E-01   1   1   5   5
 3.6156268752540510E-01   1   1   6   6
 1.3361925233149283E-02   1   2   1   2
-1.1220132228289466E-02   1   2   1   3
-8.9193406150758145E-03   1   2   1   6
 6.1864696170519356E-03   1   2   2   2
 3.3624105319467082E-03   1   2   2   3
 4.6968249080026094E-03   1   2   2   6
-1.1076181824135573E-02   1   2   3   3
 3.6636805364300491E-03   1   2   3   6
-4.3826190559740179E-03   1   2   4   4
-4.3826190559700749E-03   1   2   5   5
 3.2605442674869881E-03   1   2   6   6
 2.1650293378449925E-02   1   3   1   3
 2.3597082406981952E-03   1   3   1   6
 1.5927544903074058E-02   1   3   2   2
 1.9457359831490838E-04   1   3   2   3
-5.7994711121253336E-04   1   3   2   6
-1.8364753300464771E-03   1   3   3   3
 4.4001136995770957E-03   1   3   3   6
 5.0103349844383832E-03   1   3   4   4
 5.0103349844262289E-03   1   3   5   5
 1.1416837042889703E-02   1   3   6   6
 9.8198689221677370E-03   1   4   1   4
 7.5164446293970412E-03   1   4   2   4
-1.0272658234905148E-02   1   4   3   4
-6.1418191132375502E-03   1   4   4   6
 9.8198689221912529E-03   1   5   1   5
 7.5164446294140033E-03   1   5   2   5
-1.0272658234932364E-02   1   5   3   5
-6.1418191132447050E-03   1   5   5   6
 8.5520281395617993E-03   1   6   1   6
-6.8305742787635928E-03   1   6   2   2
-1.7070775019968380E-03   1   6   2   3
 1.2089575141012997E-04   1   6   2   6
 1.0473652589391213E-02   1   6   3   3
-4.2963064292415630E-03   1   6   3   6
 6.0733702880809708E-04   1   6   4   4
 6.0733702880693037E-04   1   6   5   5
-3.0763611785068596E-03   1   6   6   6
 4.8696923615603571E-01   2   2   2   2
 4.8673192906504369E-02   2   2   2   3
 1.2682585153426007E-01   2   2   2   6
 2.2207684582544082E-01   2   2   3   3
 5.1725041788584156E-02   2   2   3   6
 2.6931057460912416E-01   2   2   4   4
 2.6931057460913743E-01   2   2   5   5
 4.5344862228143717E-01   2   2   6   6
 1.3074357366741222E-02   2   3   2   3
 3.4532278168798614E-02   2   3   2   6
-7.6521522213230837E-03   2   3   3   3
 9.5005232735582892E-03   2   3   3   6
-5.7112650518622958E-03   2   3   4   4
-5.7112650518572963E-03   2   3   5   5
 4.3501724977949845E-02   2   3   6   6
 2.3612689364016230E-02   2   4   2   4
-1.9660010050143773E-02   2   4   3   4
-1.9736571778768752E-02   2   4   4   6
 2.3612689364026114E-02   2   5   2   5
-1.9660010050139950E-02   2   5   3   5
-1.9736571778750635E-02   2   5   5   6
 1.2383163324182184E-01   2   6   2   6
-1.1902300947385589E-02   2   6   3   3
 3.1858316517801188E-02   2   6   3   6
-1.5864225587806421E-02   2   6   4   4
-1.5864225587796446E-02   2   6   5   5
 1.3454832317431481E-01   2   6   6   6
 3.3745516239657347E-01   3   3   3   3
-3.6097312553601379E-02   3   3   3   6
 2.8072389691079030E-01   3   3   4   4
 2.8072389691079774E-01   3   3   5   5
 2.3939716830479155E-01   3   3   6   6
 4.1574401040021657E-02   3   4   3   4
 1.4171696707401834E-02   3   4   4   6
 4.1574401040012310E-02   3   5   3   5
 1.4171696707380650E-02   3   5   5   6
 2.6484660219304429E-02   3   6   3   6
-2.1453620360574097E-03   3   6   4   4
-2.1453620360655104E-03   3   6   5   5
 4.4525329121800961E-02   3   6   6   6
 3.1126171165226496E-01   4   4   4   4
-3.3192265569307155E-07   4   4   4   5
 2.7803357200249446E-01   4   4   5   5
 2.6678403197166090E-01   4   4   6   6
 1.6765218621834339E-02   4   5   4   5
 3.3192265588819713E-07   4   5   5   5
 1.9844263796503305E-02   4   6   4   6
 3.1126171165226457E-01   5   5   5   5
 2.6678403197164940E-01   5   5   6   6
 1.9844263796465179E-02   5   6   5   6
 4.5318537347316701E-01   6   6   6   6
-4.7274928345697500E+00   1   1   0   0
 1.0566592300600668E-01   1   2   0   0
-1.6697933722736052E-01   1   3   0   0
-1.1477850544437628E-12   1   4   0   0
 2.9699404559664083E-17   1   5   0   0
-3.4798155871967530E-02   1   6   0   0
-1.4926089003683276E+00   2   2   0   0
-3.2911492320197279E-02   2   3   0   0
-1.0062808512802502E-15   2   4   0   0
 5.5865269181193328E-17   2   5   0   0
-5.2856194853614598E-02   2   6   0   0
-1.1246113418866224E+00   3   3   0   0
-3.6185603973485621E-16   3   4   0   0
 2.8998241944651825E-17   3   5   0   0
-3.1417780899706871E-02   3   6   0   0
-1.1347793078137312E+00   4   4   0   0
-1.0151507269873706E-16   4   5   0   0
-2.1038003802663802E-16   4   6   0   0
-1.1347793078136172E+00   5   5   0   0
-8.9271852787184578E-18   5   6   0   0
-9.5059645051377517E-01   6   6   0   0
 9.9239946791345224E-01   0   0   0   0
